liquid Si                               
   1.00000000000000     
    10.937456    0.000000    0.000000
     0.000000   10.937456    0.000000
     0.000000    0.000000   10.937456
   Si
    64
Direct
   0.084216  0.328169  0.176727
   0.161184  0.343258  0.643118
   0.125518  0.908875  0.092361
   0.122751  0.879563  0.635870
   0.616843  0.498509  0.237227
   0.654845  0.327648  0.657224
   0.647533  0.814488  0.139465
   0.645165  0.876372  0.578739
   0.975157  0.042103  0.186124
   0.980759  0.026308  0.740001
   0.013981  0.482155  0.292262
   0.110859  0.478559  0.800870
   0.508051  0.936833  0.285878
   0.559114  0.997456  0.704627
   0.436455  0.611551  0.283156
   0.496248  0.435562  0.797829
   0.115781  0.127401  0.309371
   0.027949  0.093782  0.940257
   0.067687  0.565430  0.486040
   0.154194  0.657603  0.921502
   0.565035  0.099746  0.399837
   0.677450  0.147083  0.801870
   0.743574  0.697063  0.430349
   0.633016  0.561958  0.014129
   0.951371  0.266470  0.037089
   0.045821  0.286970  0.446878
   0.954085  0.787857  0.951018
   0.981524  0.781577  0.457911
   0.470537  0.121736  0.896333
   0.526174  0.258188  0.521225
   0.463245  0.777731  0.021239
   0.472587  0.745342  0.484898
   0.396560  0.402932  0.394597
   0.325916  0.300795  0.857752
   0.306562  0.815581  0.267457
   0.384375  0.937455  0.831176
   0.812192  0.423056  0.336473
   0.931329  0.404799  0.889478
   0.866182  0.888576  0.293479
   0.834882  0.909712  0.827079
   0.252445  0.040307  0.992060
   0.223295  0.010688  0.466781
   0.275741  0.412888  0.034499
   0.273131  0.512262  0.580110
   0.767868  0.993300  0.052802
   0.759361  0.033082  0.424982
   0.834859  0.607329  0.889011
   0.792984  0.486381  0.516622
   0.477979  0.130346  0.184947
   0.359699  0.115090  0.571548
   0.290639  0.655754  0.116370
   0.408601  0.605054  0.691311
   0.746562  0.225096  0.082838
   0.940609  0.138903  0.573816
   0.923224  0.627470  0.118488
   0.933416  0.582090  0.679544
   0.313868  0.231919  0.287227
   0.178593  0.124596  0.677950
   0.118859  0.749241  0.234608
   0.279859  0.761006  0.779161
   0.592827  0.275026  0.261303
   0.882431  0.244012  0.754001
   0.761466  0.667472  0.236427
   0.764977  0.724433  0.724679
 
   48   48   48
  254.55      291.15      314.91      325.77      330.52      340.16      369.10      430.79      523.60      609.71    
  588.61      441.97      315.58      336.20      437.22      459.39      368.68      258.76      177.01      129.00    
  104.52      92.175      84.323      76.240      66.143      55.098      45.401      39.250      38.624      46.351    
  67.448      109.61      180.67      279.97      386.84      444.07      440.24      441.84      477.84      485.59    
  414.12      307.32      219.76      166.87      146.25      150.76      174.71      212.27      341.56      381.01    
  397.57      393.50      377.76      365.52      377.78      432.05      521.81      573.54      439.53      147.84    
 -43.653      56.546      324.08      479.76      427.59      303.51      207.94      153.21      127.88      117.54    
  111.87      104.11      91.567      75.775      60.509      49.314      44.634      49.047      66.846      104.79    
  170.31      264.02      370.41      444.76      460.81      458.62      465.05      443.84      367.82      276.41    
  205.84      168.14      162.54      184.50      228.79      286.05      425.62      460.20      470.10      460.13    
  432.64      403.23      397.77      438.56      517.89      545.08      358.59      7.3033     -207.14     -68.177    
  275.73      493.67      462.07      333.53      234.38      180.62      159.97      155.71      154.70      147.75    
  131.16      107.64      83.507      64.467      53.733      53.406      66.477      98.024      154.37      237.43    
  336.58      425.01      468.64      468.69      440.77      382.98      304.06      230.99      181.33      162.56    
  175.37      218.28      285.65      362.20      471.97      481.94      485.51      490.41      470.55      432.50    
  411.05      434.65      502.10      545.40      423.79      159.78     -5.3300      108.86      377.48      525.02    
  463.94      338.89      249.12      205.97      196.52      202.79      209.12      203.64      181.75      148.06    
  112.40      83.279      64.998      59.071      66.965      91.770      137.87      206.89      291.14      369.97    
  416.88      416.26      373.52      307.08      237.94      183.22      153.32      152.55      183.09      245.79    
  333.06      421.07      488.43      465.05      457.69      478.21      474.11      433.49      399.27      404.24    
  455.48      521.44      515.22      415.50      342.95      398.79      508.32      520.93      421.88      315.41    
  247.42      222.97      229.46      249.12      264.40      260.96      233.61      189.37      141.81      102.38    
  76.544      65.335      68.890      88.492      126.23      181.98      248.68      309.82      344.07      338.13    
  296.69      238.09      182.53      144.23      130.18      143.82      189.10      268.24      371.00      461.98    
  530.80      489.10      460.32      463.57      448.01      399.81      356.16      344.74      375.04      433.41    
  488.68      506.82      506.39      514.33      502.76      435.78      344.09      269.03      229.29      226.02    
  248.60      280.80      304.20      302.85      271.67      219.84      163.72      116.93      85.857      71.292    
  72.517      89.602      122.82      170.01      223.44      269.03      290.51      278.96      240.13      190.55    
  147.26      121.50      118.85      143.25      200.29      293.14      409.98      509.59      610.81      571.35    
  511.01      460.49      402.79      339.89      290.43      268.73      279.47      315.46      361.94      402.27    
  421.96      412.97      373.66      314.75      255.32      213.62      199.46      212.98      246.52      286.18    
  313.94      313.99      282.16      228.72      170.76      122.44      90.545      75.961      77.744      95.543    
  128.76      173.87      221.96      259.13      271.60      254.30      215.45      171.11      135.77      118.38    
  123.89      156.96      223.97      328.20      457.00      570.88      674.19      633.32      540.60      437.32    
  343.87      269.81      219.11      193.93      192.14      208.22      234.30      259.92      273.44      267.25    
  242.77      209.46      179.51      162.92      165.27      187.12      223.50      263.06      289.76      289.95    
  260.96      212.61      160.38      117.16      89.472      78.576      84.086      106.07      143.91      193.21    
  243.32      278.62      285.77      263.04      222.03      179.42      148.30      136.48      148.95      190.76    
  267.77      381.03      514.73      628.56      698.46      630.73      511.69      385.77      280.67      204.92    
  157.38      133.09      125.89      130.49      142.41      155.98      164.35      162.88      152.43      138.42    
  127.38      124.68      133.82      155.71      187.20      219.59      240.38      239.56      215.89      177.43    
  136.37      103.09      83.290      78.837      90.593      119.81      166.25      224.34      280.67      317.08    
  321.00      294.79      253.11      212.30      184.35      177.46      197.43      249.10      336.70      456.99    
  586.84      681.49      706.00      600.86      459.93      327.06      224.15      154.34      112.36      90.670    
  82.287      82.365      87.796      95.504      101.95      104.50      103.05      99.876      98.077      100.59    
  109.72      126.25      148.05      169.23      181.62      179.18      161.62      134.53      106.34      84.552    
  73.807      76.666      95.579      133.37      190.19      258.67      321.86      359.54      361.98      336.66    
  299.42      263.75      240.66      240.25      268.72      328.42      421.56      543.15      663.37      730.14    
  695.07      565.35      411.46      278.28      182.01      119.98      83.695      64.998      57.373      56.566    
  60.182      66.436      73.556      79.698      83.702      85.789      87.160      89.580      94.792      103.42    
  114.24      123.94      128.21      124.14      111.83      94.608      77.671      65.943      63.085      72.190    
  97.045      141.84      207.09      283.77      352.04      390.87      394.55      375.75      347.83      320.76    
  305.71      315.09      352.17      411.13      486.05      576.83      678.40      737.48      631.90      521.12    
  371.37      243.82      154.62      99.305      67.882      52.114      46.103      46.229      50.693      58.475    
  68.515      78.807      86.913      91.380      92.198      90.813      89.302      88.908      89.534      89.810    
  87.853      82.492      73.833      63.574      54.635      50.031      52.622      65.664      93.523      141.01    
  208.93      288.04      358.03      398.45      406.58      396.86      379.28      362.07      358.40      381.61    
  427.42      468.62      468.30      468.57      534.83      626.09      524.61      466.77      336.31      219.65    
  138.06      88.538      61.309      48.388      44.615      47.169      54.880      67.252      83.137      99.415    
  111.77      116.85      113.82      104.81      93.535      82.997      74.463      67.593      61.391      55.117    
  48.578      42.475      38.272      37.735      43.104      57.363      84.629      129.35      192.47      266.19    
  332.67      374.09      387.63      384.55      374.79      367.38      377.55      417.84      475.89      491.20    
  401.84      295.96      314.68      443.32      461.82      423.53      307.29      201.62      128.06      84.262    
  61.192      51.522      51.107      58.142      72.222      93.247      119.22      144.65      162.09      165.70    
  154.52      133.04      108.21      85.717      68.149      55.355      46.082      39.075      33.562      29.582    
  27.701      28.915      34.898      48.024      71.609      109.07      161.13      222.22      278.85      316.64    
  332.20      333.31      329.70      332.18      356.58      414.55      492.24      518.46      417.31      276.05    
  255.99      369.05      485.35      403.38      283.99      186.16      120.85      83.476      65.407      60.360    
  65.492      80.290      105.38      140.90      183.18      222.57      246.16      244.61      218.37      177.27    
  133.74      96.564      69.036      50.397      38.358      30.575      25.452      22.425      21.471      23.072    
  28.346      38.938      57.175      85.234      123.40      168.05      210.27      239.93      253.79      257.23    
  259.34      271.24      307.38      379.53      481.26      565.22      554.24      479.13      445.99      478.23    
  519.25      381.98      258.71      169.10      113.26      83.617      72.134      73.988      87.957      115.19    
  157.48      214.78      280.87      340.28      371.66      360.04      308.96      238.23      169.12      113.84    
  75.099      50.361      35.559      26.904      21.826      19.153      18.454      19.830      23.880      31.585    
  44.371      63.385      88.463      117.33      144.78      164.77      175.22      180.05      187.10      206.15    
  249.29      328.59      446.67      585.09      685.88      711.88      684.28      623.26      486.28      339.25    
  224.92      148.21      103.73      83.079      79.743      90.892      117.38      162.21      227.44      310.94    
  403.76      485.98      527.46      503.93      421.01      311.87      210.74      134.37      83.732      53.057    
  35.713      26.275      21.181      18.678      18.045      19.109      22.051      27.290      35.544      47.296    
  62.175      78.786      94.471      106.25      113.32      118.77      128.81      151.46      196.55      275.33    
  394.78      545.96      691.56      770.24      748.11      639.28      406.11      279.91      185.71      125.35    
  92.813      81.338      86.741      108.59      150.19      215.81      304.54      406.82      501.24      581.08    
  638.64      630.19      529.04      384.08      251.05      153.76      92.087      56.451      37.237      27.416    
  22.564      20.440      20.087      21.128      23.455      27.051      32.081      38.656      46.446      54.730    
  62.407      68.372      72.748      77.960      88.794      111.77      154.99      227.65      335.72      471.32    
  600.84      671.70      648.33      543.72      317.24      219.96      148.38      103.77      81.841      78.383    
  91.645      123.66      180.07      264.83      369.12      451.50      476.61      498.00      572.22      637.21    
  585.38      432.03      278.97      166.93      97.675      59.154      39.264      29.756      25.663      24.467    
  25.058      26.860      29.477      32.458      35.486      38.481      41.337      43.958      46.240      48.130    
  50.257      54.563      64.667      85.879      124.84      188.27      278.83      387.23      485.29      533.74    
  509.27      424.75      239.85      168.81      116.79      85.252      71.749      74.257      93.092      132.37    
  199.46      296.78      402.32      434.41      359.25      296.09      373.60      523.94      560.46      439.12    
  285.12      169.48      98.483      60.071      41.085      32.847      30.389      31.239      34.221      38.474    
  43.101      46.964      49.102      49.269      47.799      45.419      42.948      41.082      40.763      43.582    
  52.194      70.681      104.10      156.71      228.23      308.72      376.36      405.19      382.32      318.66    
  178.55      128.30      91.749      70.367      62.974      69.056      90.347      132.20      202.85      303.90    
  406.85      416.39      299.41      194.69      257.06      427.68      501.69      408.79      268.29      160.10    
  93.701      58.558      42.138      36.340      36.868      41.689      49.681      59.567      69.491      76.960    
  79.735      77.111      70.135      60.992      52.000      44.884      40.926      41.379      47.976      63.418    
  90.918      132.47      185.90      242.10      285.50      300.37      280.60      234.41      132.63      97.937    
  72.992      59.038      55.648      63.197      84.054      123.67      190.09      285.79      389.86      427.74    
  360.59      286.03      321.79      427.24      453.16      357.00      234.68      141.23      84.264      54.840    
  42.349      40.234      45.514      57.120      74.354      95.503      116.92      133.16      139.12      133.02    
  117.21      96.616      76.425      60.333      50.198      46.743      50.566      62.829      84.823      116.52    
  154.68      191.67      217.08      222.19      204.98      171.58      100.85      76.816      59.888      50.968    
  50.034      57.804      76.536      110.72      167.01      249.08      346.68      423.37      438.91      424.88    
  434.17      446.25      397.54      294.00      192.14      117.11      72.109      49.641      41.871      44.531    
  56.569      78.641      111.26      152.34      194.82      227.28      239.50      228.53      199.21      160.52    
  122.02      90.939      70.497      60.674      60.460      69.259      86.510      110.43      136.99      159.92    
  172.44      170.30      154.04      128.60      81.537      63.877      51.942      46.292      47.052      54.832    
  71.215      99.106      142.89      206.08      284.95      364.43      421.56      444.08      436.81      394.93    
  317.16      227.16      148.20      92.395      59.586      44.166      41.325      49.455      70.029      106.48    
  161.49      231.94      304.15      357.07      374.84      357.98      314.95      255.95      193.81      141.17    
  105.09      85.554      79.518      84.261      97.380      115.44      133.59      146.45      149.66      141.71    
  124.67      103.01      72.639      58.109      49.088      45.820      48.344      56.814      71.809      94.517    
  126.97      171.22      226.27      284.54      332.19      354.56      343.06      299.16      234.59      166.79    
  110.29      71.311      48.937      39.680      41.416      55.131      85.210      138.68      220.50      323.92    
  421.26      464.38      455.29      438.96      421.65      370.83      289.91      212.47      155.89      123.28    
  109.75      109.92      119.39      133.03      144.91      150.08      145.85      132.45      112.95      91.717    
  73.073      59.342      51.984      50.956      56.057      66.738      82.339      102.34      126.81      156.16    
  189.79      224.16      251.56      262.21      249.90      216.10      169.62      122.31      83.322      56.511    
  41.633      36.988      42.460      61.195      100.35      170.37      276.98      404.33      474.52      419.70    
  325.02      325.04      414.31      460.34      397.74      298.51      219.83      172.82      151.62      147.67    
  154.38      164.91      172.01      170.75      159.65      140.26      116.43      92.768      82.103      67.722    
  61.547      63.362      72.736      88.283      107.77      128.69      149.18      168.30      185.43      199.68    
  208.23      206.47      191.42      164.21      130.10      96.184      68.142      48.784      38.533      36.863    
  44.975      67.462      113.44      195.60      318.66      447.31      441.02      241.72      37.633      64.458    
  300.55      494.98      492.15      382.24      285.90      227.80      201.70      195.94      201.88      211.19    
  215.04      208.15      189.97      163.32      133.08      104.58      97.949      82.442      77.942      84.263    
  100.81      125.20      153.22      179.81      200.67      213.09      216.66      213.40      204.94      190.60    
  169.58      142.89      113.63      86.043      63.559      48.099      40.273      40.194      49.791      74.227    
  123.24      210.26      339.18      462.72      414.46      143.59     -113.16     -70.614      242.48      516.06    
  549.10      438.14      335.76      275.43      250.41      247.12      255.80      266.86      269.76      258.34    
  232.85      197.69      159.35      124.38      118.27      101.96      100.33      113.51      140.66      178.12    
  219.55      257.28      283.70      292.84      283.87      262.58      235.91      206.92      176.31      145.10    
  115.28      89.268      68.834      54.970      48.105      48.638      58.714      83.176      130.88      214.32    
  338.13      466.72      460.22      258.53      51.887      85.196      338.17      547.96      551.58      444.12    
  351.62      300.54      283.59      287.65      303.22      319.85      325.19      311.87      280.51      237.21    
  190.51      148.78      141.02      124.59      126.91      148.56      188.25      240.71      297.96      350.99    
  388.61      399.11      379.30      339.07      292.02      245.71      202.57      163.87      130.87      104.35    
  84.475      71.296      64.861      65.572      75.384      98.156      140.56      212.40      319.03      443.39    
  508.26      446.60      347.92      357.21      469.55      537.96      488.21      396.98      327.51      293.90    
  289.41      303.92      329.37      354.93      366.94      356.51      323.66      275.38      222.24      174.86    
  165.28      149.04      155.21      184.70      235.29      300.01      370.29      437.58      488.99      505.43    
  478.76      422.11      355.90      292.70      237.20      191.47      156.07      129.95      111.60      100.08    
  94.907      96.125      105.17      124.63      158.38      212.33      290.79      386.11      469.92      498.70    
  481.70      471.20      472.56      443.24      379.80      315.94      273.45      258.28      265.97      290.73    
  326.52      362.78      385.36      383.85      356.26      308.64      252.70      201.59      192.58      175.31    
  182.95      216.35      272.15      341.78      416.23      487.74      547.91      572.00      543.33      477.67    
  399.96      326.71      264.98      217.73      184.81      163.44      150.74      144.93      144.49      148.32    
  156.74      170.91      192.30      223.49      267.26      321.22      372.62      404.05      407.42      388.88    
  355.90      312.71      266.69      229.10      208.40      206.71      222.81      254.92      299.04      345.70    
  381.42      394.53      379.62      339.29      284.69      231.45      227.64      205.43      208.93      238.92    
  291.12      355.83      423.80      488.83      545.13      568.64      541.01      476.58      400.07      329.11    
  272.08      232.49      209.71      200.34      201.17      209.49      221.33      232.57      241.42      247.82    
  251.90      255.24      261.47      272.67      284.99      290.46      283.38      263.71      235.37      204.06    
  176.09      156.71      148.99      154.44      174.48      210.11      259.38      315.03      365.55      398.47    
  403.38      376.63      326.64      271.32      277.03      243.38      234.27      250.99      289.29      339.25    
  391.81      442.04      482.77      496.34      471.17      416.90      353.46      296.39      254.00      230.03    
  224.47      235.28      260.17      294.31      327.95      351.35      361.06      357.70      341.01      312.61    
  279.99      251.74      230.41      212.77      194.80      174.71      153.07      132.36      115.78      105.75    
  103.80      111.74      132.35      168.36      220.13      283.88      351.34      409.33      440.61      432.41    
  388.72      329.72      342.07      291.56      261.53      255.49      270.94      299.00      330.42      360.02    
  381.82      385.20      363.70      323.69      278.87      240.84      216.94      211.41      226.40      263.18    
  320.73      389.03      447.23      472.81      471.34      463.70      440.93      388.25      320.37      256.96    
  208.20      173.16      146.95      125.78      107.74      92.522      81.025      74.514      74.198      82.042    
  101.32      135.90      188.85      260.79      347.27      433.85      494.75      506.65      469.39      406.09    
  412.01      345.86      291.70      258.14      246.73      250.67      261.03      271.70      277.85      273.56    
  255.89      229.06      201.32      180.44      172.62      182.95      216.63      279.02      369.30      468.03    
  517.52      478.36      426.77      438.77      476.50      455.77      371.13      280.04      208.74      160.12    
  127.55      104.62      87.509      74.186      64.198      58.284      57.579      64.051      81.150      113.65    
  167.27      246.81      350.85      462.62      547.51      571.12      538.13      479.49      465.53      398.15    
  323.45      264.24      228.22      211.02      204.04      200.49      195.92      186.79      171.97      154.14    
  138.01      128.63      131.30      151.81      198.06      278.57      391.53      498.75      480.90      318.72    
  189.05      239.46      396.61      476.66      416.42      309.17      221.29      162.29      124.82      100.08    
  82.682      69.514      59.289      52.489      50.327      54.822      69.544      99.919      153.54      237.81    
  352.15      476.24      557.98      562.28      527.98      500.61      490.67      442.10      354.12      276.08    
  222.35      190.26      171.13      157.75      145.82      132.95      118.76      105.08      94.726      91.091    
  98.597      123.24      174.19      261.78      383.94      485.37      413.12      165.49     -20.990      52.297    
  299.43      467.63      442.13      330.26      234.18      169.95      130.18      104.65      86.922      73.312    
  62.113      53.741      49.655      52.029      64.498      92.771      145.18      229.75      344.72      462.95    
  514.35      483.91      450.87      470.82      511.69      472.69      378.89      292.22      230.49      191.14    
  165.04      144.90      126.87      109.47      93.065      79.353      70.298      68.149      76.297      100.24    
  149.13      233.94      354.93      465.35      423.43      213.13      41.035      99.369      322.92      474.57    
  441.57      329.73      235.55      173.49      135.76      111.86      95.106      81.694      69.865      60.134    
  54.285      54.737      65.122      91.010      140.47      220.93      329.49      436.50      470.37      430.54    
  411.34      463.31      529.82      480.11      390.27      309.03      251.06      212.46      183.92      158.89    
  134.59      110.84      89.274      72.124      61.078      57.495      63.622      83.905      126.37      201.52    
  313.07      438.48      485.33      407.31      314.56      335.72      440.15      481.41      405.80      300.69    
  218.53      166.12      135.27      116.44      103.41      92.380      81.640      71.828      65.004      63.895    
  72.101      94.659      138.62      210.39      307.61      408.39      457.40      448.26      451.93      500.80    
  503.94      450.90      381.81      322.22      280.34      250.28      223.52      195.30      164.58      132.85    
  103.52      80.035      64.306      57.062      59.459      74.534      108.30      169.27      262.68      379.60    
  483.34      521.05      509.40      499.29      487.04      428.85      334.71      247.97      185.28      147.41    
  126.97      116.48      110.50      105.13      98.439      90.943      84.695      82.586      88.146      105.63    
  140.54      198.09      277.41      365.23      433.46      464.06      485.17      509.78      420.97      389.17    
  353.64      327.10      310.25      295.34      275.46      248.01      213.22      173.89      135.44      103.32    
  80.366      67.201      64.198      72.908      96.820      141.24      210.13      299.16      390.56      456.99    
  477.32      454.68      398.65      323.15      247.53      185.88      144.64      122.20      113.40      113.22    
  117.11      120.99      122.39      121.06      118.19      116.19      118.31      128.19      149.90      187.46    
  241.36      304.02      361.37      402.48      426.57      434.76      319.96      314.49      313.20      319.90    
  329.54      333.69      327.31      308.50      276.25      232.88      185.93      143.95      111.72      90.358    
  79.879      80.656      93.837      121.48      165.06      221.63      280.22      323.57      336.68      316.18    
  271.44      217.42      167.33      129.36      106.25      96.862      98.746      109.21      124.83      141.71    
  156.64      167.39      172.63      172.78      170.34      168.91      172.49      185.17      208.88      240.39    
  272.05      297.29      313.86      321.32      233.37      248.00      271.13      301.57      332.05      355.36    
  368.17      366.98      346.36      305.95      254.82      204.85      163.12      131.71      111.01      101.06    
  101.70      112.88      134.23      163.06      192.62      213.13      216.14      199.88      170.33      136.88    
  107.45      86.587      76.024      75.994      86.369      106.65      135.26      169.27      204.44      234.90    
  254.47      259.79      251.70      234.22      213.61      197.03      189.34      190.54      197.06      205.48    
  214.34      223.33      176.61      202.12      237.34      279.49      322.18      360.68      392.96      413.51    
  412.66      386.56      342.54      292.19      243.45      200.36      165.35      139.72      123.69      116.98    
  118.78      126.61      135.89      141.03      137.57      124.65      105.63      85.684      69.123      58.515    
  55.407      61.197      77.609      106.50      148.96      203.70      264.75      320.82      359.57      373.34    
  360.26      323.71      273.64      224.13      185.82      161.51      148.94      145.33      149.12      159.51    
  151.38      181.11      219.25      263.31      309.34      355.25      400.39      440.15      465.29      468.69    
  449.50      411.20      360.08      304.26      250.64      202.99      163.63      134.77      117.10      108.35    
  104.27      100.50      93.832      83.242      70.220      57.587      47.797      42.482      43.178      52.047    
  72.305      108.29      164.12      239.88      326.62      406.51      459.41      481.11      471.52      421.98    
  343.27      261.08      194.98      151.08      126.40      116.47      118.41      130.42      155.51      186.79    
  222.53      260.97      301.22      344.21      392.17      445.70      500.40      545.19      564.19      546.18    
  495.69      431.32      362.31      291.16      222.96      166.56      127.54      104.19      90.835      82.012    
  73.982      64.878      54.852      45.497      38.515      35.235      37.276      47.261      69.538      110.53    
  176.73      268.42      372.33      454.76      492.69      513.55      526.61      494.05      402.31      295.96    
  209.39      152.93      122.62      111.62      115.33      130.85      189.64      222.81      253.27      279.88    
  305.43      335.28      376.99      438.27      518.80      599.99      640.13      602.95      532.26      488.16    
  456.63      389.29      295.70      210.01      148.51      111.77      91.663      80.088      71.677      63.311    
  54.110      45.156      38.114      34.494      36.043      45.606      68.191      111.41      182.89      282.14    