liquid Si                               
   1.00000000000000     
    10.937456    0.000000    0.000000
     0.000000   10.937456    0.000000
     0.000000    0.000000   10.937456
   Si
    64
Direct
   0.080126  0.375117  0.162544
   0.291325  0.288152  0.677743
   0.118665  0.904157  0.037242
   0.081116  0.867467  0.619426
   0.578605  0.550241  0.235820
   0.633216  0.365460  0.711143
   0.620925  0.790660  0.161854
   0.602504  0.829924  0.537663
   0.015236  0.049888  0.160621
   0.954358  0.010812  0.698449
   0.970407  0.543007  0.246696
   0.140091  0.505106  0.802303
   0.522447  0.950239  0.321626
   0.506219  0.966024  0.715489
   0.363311  0.673909  0.288719
   0.495133  0.474533  0.866401
   0.171516  0.172648  0.277729
   0.027180  0.086009  0.904383
   0.072334  0.512453  0.481207
   0.185807  0.682998  0.910166
   0.640747  0.128776  0.355608
   0.644102  0.118419  0.774517
   0.825996  0.666612  0.456155
   0.612818  0.529906  0.018084
   0.903467  0.274345  0.048120
   0.085069  0.202877  0.529393
   0.957073  0.785475  0.895038
   0.050114  0.710631  0.435625
   0.489966  0.137379  0.922145
   0.544558  0.325900  0.516659
   0.449495  0.728033  0.088421
   0.597442  0.618741  0.476078
   0.418077  0.467310  0.400378
   0.358863  0.324103  0.912125
   0.279690  0.888030  0.286539
   0.383956  0.893827  0.913582
   0.746759  0.428485  0.354414
   0.943824  0.457805  0.900364
   0.914174  0.913276  0.300425
   0.817394  0.932116  0.870533
   0.252708  0.109309  0.864451
   0.191171  0.000782  0.443328
   0.279130  0.368796  0.089254
   0.263358  0.469990  0.577597
   0.752495  0.978277  0.077040
   0.784734  0.973352  0.485730
   0.779566  0.617413  0.799793
   0.747676  0.497766  0.538907
   0.450856  0.115007  0.168287
   0.403350  0.083987  0.575016
   0.272780  0.586087  0.112009
   0.392612  0.588616  0.677558
   0.652181  0.182135  0.066081
   0.891627  0.182016  0.614321
   0.870705  0.597538  0.040040
   0.948877  0.512933  0.671862
   0.359112  0.285057  0.302973
   0.201085  0.085596  0.677705
   0.087807  0.744840  0.234727
   0.290662  0.787270  0.724184
   0.585999  0.306024  0.266977
   0.807395  0.305355  0.782959
   0.782975  0.668559  0.252052
   0.857033  0.822446  0.685723
 
   48   48   48
 0.24014986372E+03 0.30479265977E+03 0.36463364252E+03 0.40600287507E+03 0.41696197219E+03
 0.39411328047E+03 0.34616942113E+03 0.28791706975E+03 0.23095255985E+03 0.18129501995E+03
 0.14209462435E+03 0.11467809178E+03 0.98303006729E+02 0.91153831362E+02 0.91439804895E+02
 0.97592282364E+02 0.10809266451E+03 0.12124066636E+03 0.13479912559E+03 0.14565296455E+03
 0.15037846652E+03 0.14685983929E+03 0.13532129422E+03 0.11802540734E+03 0.98370072395E+02
 0.79857625538E+02 0.65345466678E+02 0.56916536183E+02 0.56238763530E+02 0.65368912189E+02
 0.87603007766E+02 0.12756722198E+03 0.18905716864E+03 0.27062252471E+03 0.36350467449E+03
 0.45319132583E+03 0.52091817076E+03 0.54798654364E+03 0.51535850818E+03 0.43011594357E+03
 0.32419329083E+03 0.22959321212E+03 0.16233767123E+03 0.12348310468E+03 0.10857706845E+03
 0.11418697961E+03 0.13908398857E+03 0.18229444097E+03 0.27850300773E+03 0.33471972548E+03
 0.37168823199E+03 0.37957879974E+03 0.35777109318E+03 0.31437068614E+03 0.26166382857E+03
 0.21070188730E+03 0.16802169837E+03 0.13562972799E+03 0.11275838362E+03 0.97523194247E+02
 0.88064368354E+02 0.83101463867E+02 0.81869480254E+02 0.84043115097E+02 0.89881393043E+02
 0.99964162766E+02 0.11420377320E+03 0.13090032661E+03 0.14666387828E+03 0.15720262473E+03
 0.15874610654E+03 0.14996042709E+03 0.13308998586E+03 0.11287263044E+03 0.94322450900E+02
 0.81457446223E+02 0.77204245716E+02 0.83778367143E+02 0.10352162399E+03 0.13932313093E+03
 0.19282430619E+03 0.26044559036E+03 0.33159287938E+03 0.39222317442E+03 0.42932252469E+03
 0.43219338854E+03 0.39620659160E+03 0.32939934018E+03 0.25195482991E+03 0.18462291408E+03
 0.13847591922E+03 0.11506585493E+03 0.11249694029E+03 0.12951594479E+03 0.16550780665E+03
 0.21774319298E+03 0.31903982456E+03 0.36636548378E+03 0.38338690861E+03 0.36504869569E+03
 0.31926809965E+03 0.26178838646E+03 0.20709580731E+03 0.16311624525E+03 0.13173355607E+03
 0.11144205340E+03 0.99283528913E+02 0.92015032915E+02 0.87073452766E+02 0.83151367559E+02
 0.80215093345E+02 0.79399531513E+02 0.82747794879E+02 0.92466360104E+02 0.10986539128E+03
 0.13446193263E+03 0.16322982086E+03 0.18997103650E+03 0.20644262053E+03 0.20677868081E+03
 0.19168108383E+03 0.16756110148E+03 0.14229051588E+03 0.12245561218E+03 0.11257269628E+03
 0.11505767064E+03 0.13091526385E+03 0.16057892999E+03 0.20290265029E+03 0.25239918595E+03
 0.29842830756E+03 0.32919026758E+03 0.33720898434E+03 0.32102192646E+03 0.28395694215E+03
 0.23387374254E+03 0.18230778212E+03 0.14029255459E+03 0.11422624118E+03 0.10604736466E+03
 0.11637046574E+03 0.14606482872E+03 0.19452683271E+03 0.25622167329E+03 0.35091279048E+03
 0.38740553297E+03 0.38689556294E+03 0.35027338114E+03 0.29099591490E+03 0.22766318103E+03
 0.17444712058E+03 0.13681278429E+03 0.11372647438E+03 0.10162561323E+03 0.96529781202E+02
 0.94610751253E+02 0.92676048126E+02 0.89058855604E+02 0.84374449343E+02 0.81290657274E+02
 0.83473059147E+02 0.94447224248E+02 0.11680319159E+03 0.15151963973E+03 0.19624871931E+03
 0.24264560874E+03 0.27706723851E+03 0.28823019470E+03 0.27527503378E+03 0.24677873307E+03
 0.21370412294E+03 0.18523815602E+03 0.16797516570E+03 0.16490291993E+03 0.17556928042E+03
 0.19747968099E+03 0.22620233856E+03 0.25451756289E+03 0.27350890995E+03 0.27633359973E+03
 0.26156575646E+03 0.23305394287E+03 0.19712196333E+03 0.16018585814E+03 0.12795878352E+03
 0.10509663969E+03 0.94749108057E+02 0.99089674758E+02 0.12056020574E+03 0.16147524629E+03
 0.22062493256E+03 0.28923051293E+03 0.36550795000E+03 0.38993047799E+03 0.37504465724E+03
 0.32740487737E+03 0.26341218293E+03 0.20113069098E+03 0.15263593520E+03 0.12136705561E+03
 0.10484709153E+03 0.98695270515E+02 0.98622337907E+02 0.10052362173E+03 0.10063696286E+03
 0.97037513643E+02 0.90953972696E+02 0.86415879204E+02 0.88387008630E+02 0.10148826059E+03
 0.12975596075E+03 0.17588074863E+03 0.23809303451E+03 0.30537772191E+03 0.35848253257E+03
 0.38157963161E+03 0.37351048726E+03 0.34473146970E+03 0.30743995797E+03 0.27238659179E+03
 0.24847950478E+03 0.23974173204E+03 0.24419060239E+03 0.25649510242E+03 0.26953010376E+03
 0.27495056389E+03 0.26641296887E+03 0.24326109927E+03 0.21020848642E+03 0.17388069700E+03
 0.14002899617E+03 0.11241387538E+03 0.92985836691E+02 0.82885276609E+02 0.83465521113E+02
 0.96892583466E+02 0.12636350638E+03 0.17451209332E+03 0.23920408023E+03 0.30921684417E+03
 0.35966196920E+03 0.37186668709E+03 0.34685576318E+03 0.29476927404E+03 0.23251919456E+03
 0.17586638381E+03 0.13416283306E+03 0.10924846876E+03 0.98124993344E+02 0.96456135724E+02
 0.10006676992E+03 0.10468764153E+03 0.10621788023E+03 0.10272455759E+03 0.95983991197E+02
 0.90943151654E+02 0.93389931642E+02 0.10880807326E+03 0.14252471509E+03 0.19868043319E+03
 0.27553737510E+03 0.35937905101E+03 0.42706133601E+03 0.46163086361E+03 0.46385071215E+03
 0.44417342088E+03 0.41250884436E+03 0.37876353710E+03 0.35379988983E+03 0.34183048976E+03
 0.33868730064E+03 0.33764252374E+03 0.33200087254E+03 0.31406387213E+03 0.27950603977E+03
 0.23271333888E+03 0.18388775278E+03 0.14143667991E+03 0.10917220860E+03 0.87749540291E+02
 0.76460824982E+02 0.74667084812E+02 0.82785392061E+02 0.10253209137E+03 0.13658372267E+03
 0.18668369213E+03 0.24965723987E+03 0.31359132429E+03 0.33570066816E+03 0.33528363689E+03
 0.30390244271E+03 0.25268773173E+03 0.19673907800E+03 0.14855296505E+03 0.11471851147E+03
 0.95900135434E+02 0.89194703491E+02 0.90794743506E+02 0.96880523555E+02 0.10327833906E+03
 0.10592072142E+03 0.10305355619E+03 0.96776912454E+02 0.92352421917E+02 0.95796349923E+02
 0.11299803507E+03 0.15000709381E+03 0.21156827755E+03 0.29553983871E+03 0.38655354740E+03
 0.46074835370E+03 0.50251707404E+03 0.51991533915E+03 0.52060808586E+03 0.50598746440E+03
 0.48563882694E+03 0.46993480041E+03 0.45990840671E+03 0.44731983371E+03 0.42715171105E+03
 0.39952038379E+03 0.36039175523E+03 0.30508803686E+03 0.23942862138E+03 0.17762335786E+03
 0.13001449450E+03 0.98783258616E+02 0.81882292782E+02 0.76641200767E+02 0.81373441630E+02
 0.95631401271E+02 0.11998688867E+03 0.15544176935E+03 0.20191793599E+03 0.25538089546E+03
 0.30514807850E+03 0.30107821499E+03 0.28710561591E+03 0.25159974722E+03 0.20452481251E+03
 0.15751003501E+03 0.11916269877E+03 0.93412097939E+02 0.80149603426E+02 0.76889730459E+02
 0.80597655928E+02 0.88000389290E+02 0.95393477155E+02 0.99237470639E+02 0.98025717806E+02
 0.93710538266E+02 0.91155226845E+02 0.96043523873E+02 0.11418408179E+03 0.15151474292E+03
 0.21246812859E+03 0.29442017902E+03 0.38225114600E+03 0.45467562925E+03 0.50047641408E+03
 0.53057554512E+03 0.55057107859E+03 0.55797063717E+03 0.56073883982E+03 0.56525432389E+03
 0.56439239880E+03 0.54067895921E+03 0.49404787034E+03 0.44705224408E+03 0.39847359544E+03
 0.33212529285E+03 0.25522041060E+03 0.18490088207E+03 0.13407323312E+03 0.10451146117E+03
 0.92485878387E+02 0.93983217325E+02 0.10629691217E+03 0.12749789144E+03 0.15590671489E+03
 0.18981282090E+03 0.22690988911E+03 0.26308708389E+03 0.29101772048E+03 0.26678690259E+03
 0.23847489742E+03 0.19978451808E+03 0.15791226256E+03 0.12018601507E+03 0.91268595010E+02
 0.72707179981E+02 0.63911891971E+02 0.63017381774E+02 0.67791947766E+02 0.75683476256E+02
 0.83764660458E+02 0.89309265503E+02 0.91002523700E+02 0.90105496398E+02 0.90507409287E+02
 0.97232484918E+02 0.11559635128E+03 0.15070522277E+03 0.20592570313E+03 0.27820701921E+03
 0.35427991667E+03 0.41743382759E+03 0.46164669389E+03 0.49448537769E+03 0.52187987384E+03
 0.54664428968E+03 0.57380778757E+03 0.60376936413E+03 0.61837276150E+03 0.58511456999E+03
 0.51751357654E+03 0.46183239179E+03 0.41850276289E+03 0.35401111927E+03 0.27295772543E+03
 0.19951211746E+03 0.14897345462E+03 0.12368808033E+03 0.11949087140E+03 0.13152980101E+03
 0.15541455184E+03 0.18640224453E+03 0.21933576852E+03 0.24898639591E+03 0.27078061692E+03
 0.28196307638E+03 0.28115816606E+03 0.24239258339E+03 0.19923204645E+03 0.15731649021E+03
 0.11989013344E+03 0.89865015512E+02 0.68500276916E+02 0.55504452890E+02 0.49936327441E+02
 0.50536018244E+02 0.55832841493E+02 0.64098808995E+02 0.73333369978E+02 0.81578250227E+02
 0.87479148452E+02 0.91277270629E+02 0.95548637679E+02 0.10440476679E+03 0.12235786171E+03
 0.15327985978E+03 0.19892851906E+03 0.25588757364E+03 0.31350463162E+03 0.35973643233E+03
 0.39183932446E+03 0.41684982923E+03 0.44268292981E+03 0.47495055984E+03 0.51871752842E+03
 0.56953839344E+03 0.60274422449E+03 0.57995411028E+03 0.51750395221E+03 0.46629790220E+03
 0.42717168835E+03 0.36469095538E+03 0.28444305997E+03 0.21391395002E+03 0.16908542052E+03
 0.15309117549E+03 0.16246701985E+03 0.19155530622E+03 0.23261073172E+03 0.27624784872E+03
 0.31353952545E+03 0.33634153297E+03 0.33812450830E+03 0.31836755237E+03 0.28376672572E+03
 0.23097040333E+03 0.17326711509E+03 0.12766326365E+03 0.93104936596E+02 0.68455683246E+02
 0.52379564778E+02 0.43314576193E+02 0.40079762823E+02 0.41843055071E+02 0.47877106887E+02
 0.57349508485E+02 0.69182050172E+02 0.81963606840E+02 0.94055028724E+02 0.10439853169E+03
 0.11382394391E+03 0.12506094442E+03 0.14158800571E+03 0.16605336369E+03 0.19871431448E+03
 0.23603177599E+03 0.27054723680E+03 0.29518872521E+03 0.30991337596E+03 0.32189648319E+03
 0.33968857579E+03 0.37035333201E+03 0.41823827609E+03 0.47744022147E+03 0.52582998467E+03
 0.53209238442E+03 0.49948443080E+03 0.46104936296E+03 0.41826291468E+03 0.35307582396E+03
 0.27921484207E+03 0.21902742749E+03 0.18684261651E+03 0.18662913214E+03 0.21644868773E+03
 0.26900389619E+03 0.33017014079E+03 0.38411469154E+03 0.41995691490E+03 0.43372519933E+03
 0.41658998408E+03 0.36675569675E+03 0.29888883976E+03 0.22914877553E+03 0.15928844020E+03
 0.11005986568E+03 0.76966042361E+02 0.55634567270E+02 0.42922923035E+02 0.36529547824E+02
 0.35152832396E+02 0.38342119425E+02 0.46120259319E+02 0.58696622529E+02 0.75880290615E+02
 0.96627763280E+02 0.11868467921E+03 0.13913227818E+03 0.15604499316E+03 0.16971311269E+03
 0.18240334035E+03 0.19644277000E+03 0.21186132618E+03 0.22605241836E+03 0.23531272196E+03
 0.23748351103E+03 0.23482941218E+03 0.23389111916E+03 0.24210749094E+03 0.26542692316E+03
 0.30663069726E+03 0.36059649453E+03 0.41118030565E+03 0.43964823292E+03 0.43774591211E+03
 0.41367896703E+03 0.37021515188E+03 0.31108229151E+03 0.25146822737E+03 0.20884018955E+03
 0.19501349374E+03 0.21532403596E+03 0.26975775193E+03 0.34771147883E+03 0.42386391554E+03
 0.46190660288E+03 0.47061260477E+03 0.47863670177E+03 0.46815126016E+03 0.40893151694E+03
 0.31781030309E+03 0.23185855900E+03 0.15413900838E+03 0.10222620822E+03 0.69739269171E+02
 0.50204696573E+02 0.39438141509E+02 0.34873963469E+02 0.35304177867E+02 0.40710626559E+02
 0.52042177144E+02 0.70745563107E+02 0.97710664587E+02 0.13218341186E+03 0.17084207247E+03
 0.20764569925E+03 0.23566032060E+03 0.25065470399E+03 0.25382260820E+03 0.24979703658E+03
 0.24159530197E+03 0.22938251964E+03 0.21325578989E+03 0.19489880340E+03 0.17771979267E+03
 0.16649954950E+03 0.16612898100E+03 0.18015295390E+03 0.20941968085E+03 0.25003840792E+03
 0.29207755745E+03 0.32288988041E+03 0.33363890098E+03 0.32166768969E+03 0.28952433662E+03
 0.24628377622E+03 0.20660006674E+03 0.18447652202E+03 0.18988814567E+03 0.23010752961E+03
 0.30703147434E+03 0.40602972171E+03 0.47724124764E+03 0.46661248455E+03 0.42962153138E+03
 0.43741976021E+03 0.46112884542E+03 0.42734899899E+03 0.33203904614E+03 0.23588118922E+03
 0.15461515177E+03 0.10150017609E+03 0.69356569732E+02 0.50719059664E+02 0.41055702874E+02
 0.37927799520E+02 0.40437794520E+02 0.49199819749E+02 0.66387003651E+02 0.95100038327E+02
 0.13774035822E+03 0.19413266964E+03 0.25932022821E+03 0.32176048889E+03 0.36531815609E+03
 0.37789656490E+03 0.36071599713E+03 0.32605708064E+03 0.28528318761E+03 0.24337632199E+03
 0.20301963480E+03 0.16738034064E+03 0.13925378702E+03 0.12079125283E+03 0.11387190863E+03
 0.11952020748E+03 0.13701759574E+03 0.16325553270E+03 0.19240222116E+03 0.21650921422E+03
 0.22808642127E+03 0.22313072635E+03 0.20348412316E+03 0.17754995743E+03 0.15699954335E+03
 0.15217682427E+03 0.17200649015E+03 0.22548105063E+03 0.31627355933E+03 0.42791207907E+03
 0.49257423124E+03 0.45309425327E+03 0.38919115144E+03 0.39618813625E+03 0.44337610848E+03
 0.43225290045E+03 0.34081088699E+03 0.23860148764E+03 0.15747988930E+03 0.10497252906E+03
 0.73458609688E+02 0.55469582792E+02 0.46675461688E+02 0.45003740395E+02 0.50020536378E+02
 0.63218817840E+02 0.88331788281E+02 0.13055975007E+03 0.19452310715E+03 0.28136255738E+03
 0.38408792780E+03 0.48236204263E+03 0.54512704098E+03 0.54869808907E+03 0.49681919845E+03
 0.41676852727E+03 0.33463684219E+03 0.26133902068E+03 0.19948812766E+03 0.15059661444E+03
 0.11510603358E+03 0.92226585929E+02 0.81092898202E+02 0.80792619282E+02 0.89575326078E+02
 0.10464479569E+03 0.12221728261E+03 0.13744650508E+03 0.14539535379E+03 0.14339025599E+03
 0.13304541863E+03 0.12033855635E+03 0.11307544086E+03 0.11869304981E+03 0.14521103292E+03
 0.20218405802E+03 0.29491846105E+03 0.41055890791E+03 0.49291465133E+03 0.48406180701E+03
 0.44139594312E+03 0.44539982100E+03 0.47409682872E+03 0.44514553206E+03 0.34520446908E+03
 0.23664049525E+03 0.15978148413E+03 0.10996078123E+03 0.79715388485E+02 0.62528440244E+02
 0.54742420848E+02 0.54697623394E+02 0.62473544087E+02 0.80504554710E+02 0.11415274265E+03
 0.17081905397E+03 0.25771280294E+03 0.37805931716E+03 0.52275847295E+03 0.66024249203E+03
 0.74100140239E+03 0.72883503187E+03 0.63325843908E+03 0.50144487313E+03 0.37699323050E+03
 0.27602555840E+03 0.19818945261E+03 0.14093922378E+03 0.10150778040E+03 0.76564088692E+02
 0.63275566772E+02 0.59473574257E+02 0.62844952823E+02 0.70694529465E+02 0.80158683156E+02
 0.88236782378E+02 0.92188764563E+02 0.90853998790E+02 0.85622590996E+02 0.80238172105E+02
 0.79580844639E+02 0.89011436448E+02 0.11527499639E+03 0.16704825255E+03 0.25075967014E+03
 0.36016447526E+03 0.46648155494E+03 0.52152005649E+03 0.53333576620E+03 0.53769533161E+03
 0.52256603240E+03 0.45133679414E+03 0.34021342227E+03 0.22870117101E+03 0.16019894857E+03
 0.11475920865E+03 0.86358892606E+02 0.70150174577E+02 0.63392279263E+02 0.64834708526E+02
 0.74954542328E+02 0.96919146297E+02 0.13718931974E+03 0.20453131673E+03 0.30792083246E+03
 0.45220642544E+03 0.62650330780E+03 0.78982328752E+03 0.87836011987E+03 0.84860730047E+03
 0.71769413021E+03 0.54874933224E+03 0.39706097052E+03 0.28081552646E+03 0.19604944066E+03
 0.13629166537E+03 0.96273654919E+02 0.71189308400E+02 0.57256691634E+02 0.51768215286E+02
 0.52146008097E+02 0.55774067315E+02 0.60264534786E+02 0.63655703049E+02 0.64513834413E+02
 0.62544680753E+02 0.58921093645E+02 0.56064253309E+02 0.57151594075E+02 0.66037534653E+02
 0.87895062689E+02 0.12959616600E+03 0.19753915223E+03 0.29124147670E+03 0.39725906317E+03
 0.49008667866E+03 0.54523070632E+03 0.55565958802E+03 0.51435302560E+03 0.42598312138E+03
 0.32147689661E+03 0.21821604403E+03 0.15946943838E+03 0.11865953034E+03 0.92095068434E+02
 0.76666962761E+02 0.70478401988E+02 0.72685361610E+02 0.83967265382E+02 0.10765944845E+03
 0.15021554681E+03 0.22012213776E+03 0.32596559531E+03 0.47223197247E+03 0.64708477011E+03
 0.80698344970E+03 0.88663828441E+03 0.84547888400E+03 0.70592012051E+03 0.53376491750E+03
 0.38316865818E+03 0.27049222822E+03 0.19026071289E+03 0.13462089513E+03 0.97713009245E+02
 0.74612871045E+02 0.61659582261E+02 0.56173227270E+02 0.55516563341E+02 0.57067526341E+02
 0.58674722054E+02 0.58878384606E+02 0.56911253025E+02 0.52959210072E+02 0.48242427704E+02
 0.44708792812E+02 0.44673030690E+02 0.50851360030E+02 0.66850819490E+02 0.97637172271E+02
 0.14856363129E+03 0.22182561146E+03 0.31128514493E+03 0.40021014335E+03 0.46505152583E+03
 0.48476533905E+03 0.45230936259E+03 0.38063681611E+03 0.29519335152E+03 0.21063871029E+03
 0.15933946081E+03 0.12161146794E+03 0.96061927981E+02 0.80719057222E+02 0.74242742512E+02
 0.76101820975E+02 0.86934799511E+02 0.10952457164E+03 0.14921901293E+03 0.21277324898E+03
 0.30639401039E+03 0.43213343715E+03 0.57796522857E+03 0.70604037124E+03 0.76344020145E+03
 0.72118767348E+03 0.60185294262E+03 0.45962168147E+03 0.33652880539E+03 0.24469876369E+03
 0.17945310941E+03 0.13440954182E+03 0.10480934670E+03 0.86755577802E+02 0.77435483992E+02
 0.74508875329E+02 0.75219928938E+02 0.76684485075E+02 0.76625869537E+02 0.73729252143E+02
 0.67736252955E+02 0.59529476547E+02 0.50918011696E+02 0.44044389255E+02 0.40879353722E+02
 0.43289893213E+02 0.53600802458E+02 0.75169930232E+02 0.11203171890E+03 0.16678291302E+03
 0.23697373119E+03 0.31197949893E+03 0.37336496654E+03 0.40158182016E+03 0.38733897695E+03
 0.33830542389E+03 0.27345519634E+03 0.20865241240E+03 0.16095882848E+03 0.12396806096E+03
 0.98049160529E+02 0.81852340534E+02 0.74215273452E+02 0.74697380092E+02 0.83610284145E+02
 0.10274213531E+03 0.13583186651E+03 0.18750891413E+03 0.26114368350E+03 0.35569862441E+03
 0.45953094490E+03 0.54473681530E+03 0.57681375959E+03 0.54057881311E+03 0.45493533212E+03
 0.35662167714E+03 0.27239123284E+03 0.20960328353E+03 0.16537671377E+03 0.13579830858E+03
 0.11783198198E+03 0.10913069102E+03 0.10792578338E+03 0.11207252760E+03 0.11821843532E+03
 0.12248609260E+03 0.12177937119E+03 0.11461732555E+03 0.10152278108E+03 0.84875716705E+02
 0.68048922390E+02 0.54191392772E+02 0.45422051977E+02 0.42995171184E+02 0.48173828450E+02
 0.63072254682E+02 0.90577847451E+02 0.13291846407E+03 0.18925830961E+03 0.25299236845E+03
 0.31045247948E+03 0.34462734317E+03 0.34459358199E+03 0.31286064278E+03 0.26263630197E+03
 0.21100631416E+03 0.16376953833E+03 0.12556905720E+03 0.98065316707E+02 0.80324075750E+02
 0.71097545374E+02 0.69719792946E+02 0.76017199278E+02 0.90772872843E+02 0.11626614788E+03
 0.15537835837E+03 0.20935309638E+03 0.27500128667E+03 0.34159264479E+03 0.39033927401E+03
 0.40254396044E+03 0.37369686207E+03 0.31835979613E+03 0.25861999244E+03 0.20920056496E+03
 0.17393160862E+03 0.15138060265E+03 0.13962852264E+03 0.13730815833E+03 0.14356609298E+03
 0.15752931061E+03 0.17657884416E+03 0.19531475775E+03 0.20705784675E+03 0.20675409345E+03
 0.19295996004E+03 0.16785730130E+03 0.13629789950E+03 0.10442000073E+03 0.77726121051E+02
 0.59415578098E+02 0.50375559618E+02 0.50701863452E+02 0.61288842978E+02 0.84097104928E+02
 0.12092443678E+03 0.17137386970E+03 0.23033982487E+03 0.28610315383E+03 0.32275221694E+03
 0.32885759778E+03 0.30492070561E+03 0.26139716610E+03 0.21511831081E+03 0.16573770046E+03
 0.12526647009E+03 0.95895392904E+02 0.76758304452E+02 0.66272359940E+02 0.63323228151E+02
 0.67297258120E+02 0.78314028559E+02 0.97599430915E+02 0.12676128198E+03 0.16567785660E+03
 0.21024061679E+03 0.25119370107E+03 0.27621195512E+03 0.27646188655E+03 0.25333871316E+03
 0.21803531830E+03 0.18368386439E+03 0.15818839461E+03 0.14357175012E+03 0.13950295477E+03
 0.14563852184E+03 0.16217964638E+03 0.18989841433E+03 0.22862102220E+03 0.27381676087E+03
 0.31452225418E+03 0.33781213424E+03 0.33685871999E+03 0.31324473193E+03 0.27230235723E+03
 0.22018886178E+03 0.16552143828E+03 0.11826076958E+03 0.84937633343E+02 0.66703750292E+02
 0.62090773281E+02 0.70415897093E+02 0.92691862063E+02 0.13018152641E+03 0.18206475084E+03
 0.24268224640E+03 0.29937833327E+03 0.33532859929E+03 0.33919848123E+03 0.31273919857E+03
 0.26727040975E+03 0.21872754510E+03 0.16457398773E+03 0.12166840765E+03 0.91303087130E+02
 0.71857419481E+02 0.61118102114E+02 0.57526730779E+02 0.60237324185E+02 0.69093084583E+02
 0.84673822204E+02 0.10761238157E+03 0.13684529457E+03 0.16800516449E+03 0.19345621709E+03
 0.20504038762E+03 0.19908197733E+03 0.17934450234E+03 0.15473302809E+03 0.13392127194E+03
 0.12183104170E+03 0.12016682750E+03 0.12982881113E+03 0.15201003784E+03 0.18876455851E+03
 0.24314391837E+03 0.31580231655E+03 0.39737599805E+03 0.46516589240E+03 0.49247951118E+03
 0.47567382930E+03 0.44140779043E+03 0.39704597284E+03 0.33056632851E+03 0.25097338744E+03
 0.17709395500E+03 0.12342788797E+03 0.93347983068E+02 0.83683255159E+02 0.91786847313E+02
 0.11763536485E+03 0.16171312157E+03 0.22182350944E+03 0.28984855766E+03 0.34975612200E+03
 0.38199753342E+03 0.37560706866E+03 0.33605773738E+03 0.27897233281E+03 0.21895893620E+03
 0.15870598865E+03 0.11422109610E+03 0.84454327855E+02 0.66222152392E+02 0.56584793196E+02
 0.53684356254E+02 0.56644714611E+02 0.65235871509E+02 0.79682720116E+02 0.99969821461E+02
 0.12426731574E+03 0.14798965370E+03 0.16464633442E+03 0.16855990293E+03 0.15866564945E+03
 0.13970145421E+03 0.11930640444E+03 0.10415349234E+03 0.98129862358E+02 0.10323620759E+03
 0.12162553350E+03 0.15603366016E+03 0.21068063264E+03 0.29170053096E+03 0.40026836984E+03
 0.51836447836E+03 0.59120491090E+03 0.55692867458E+03 0.47006603979E+03 0.43527802426E+03
 0.45362506457E+03 0.43586657282E+03 0.34905676539E+03 0.24940158325E+03 0.17334177911E+03
 0.13027501773E+03 0.11628903304E+03 0.12691210819E+03 0.16124364328E+03 0.21861081598E+03
 0.29392479372E+03 0.37397074160E+03 0.43650444367E+03 0.45858223148E+03 0.43184315881E+03
 0.36881942012E+03 0.29197023467E+03 0.21273707291E+03 0.14796452354E+03 0.10377914834E+03
 0.76282164543E+02 0.60699308532E+02 0.53543875682E+02 0.52878417529E+02 0.57864699312E+02
 0.68283831729E+02 0.84052556313E+02 0.10472015745E+03 0.12768055760E+03 0.14786003751E+03
 0.15928386642E+03 0.15774985039E+03 0.14379640652E+03 0.12303543419E+03 0.10270485276E+03
 0.88691311325E+02 0.84317024920E+02 0.91776518079E+02 0.11399716237E+03 0.15500415359E+03
 0.22090138991E+03 0.32059343480E+03 0.45477764130E+03 0.59066637244E+03 0.60787311697E+03
 0.43630770128E+03 0.23478506674E+03 0.21692049108E+03 0.36863831202E+03 0.48184321210E+03
 0.43843644053E+03 0.32281975941E+03 0.22803474394E+03 0.17447906143E+03 0.15919573518E+03
 0.17668359578E+03 0.22522096597E+03 0.30231678009E+03 0.39833628135E+03 0.49200763363E+03
 0.55208895191E+03 0.55287845997E+03 0.49349245749E+03 0.39847681348E+03 0.29843871557E+03
 0.19968739663E+03 0.13392691824E+03 0.92275935760E+02 0.68382898522E+02 0.56518261560E+02
 0.53099900803E+02 0.56333519291E+02 0.65513441898E+02 0.80343443619E+02 0.10026935217E+03
 0.12401578132E+03 0.14787529980E+03 0.16598081220E+03 0.17275177941E+03 0.16539400714E+03
 0.14603226868E+03 0.12131511758E+03 0.98567499805E+02 0.83208755656E+02 0.77959682979E+02
 0.84688149602E+02 0.10648467964E+03 0.14782913295E+03 0.21579357626E+03 0.32040610423E+03
 0.46133843989E+03 0.59025509239E+03 0.54322167003E+03 0.25986786959E+03 -.23464134611E+02
 -.17106699021E+02 0.25198586492E+03 0.48554509835E+03 0.49672848188E+03 0.37949567807E+03
 0.27576812538E+03 0.21930618603E+03 0.20912689967E+03 0.23907622599E+03 0.30527778771E+03
 0.40192278714E+03 0.51558019715E+03 0.61870772807E+03 0.67094578093E+03 0.64338862291E+03
 0.54498795749E+03 0.41549867207E+03 0.29414691727E+03 0.18271676412E+03 0.11923549082E+03
 0.81799630531E+02 0.62355844957E+02 0.54997999581E+02 0.56509531942E+02 0.65554205206E+02
 0.81638175821E+02 0.10421628356E+03 0.13175264137E+03 0.16126156685E+03 0.18711314214E+03
 0.20237129643E+03 0.20227730487E+03 0.18648391356E+03 0.15948426512E+03 0.12910214568E+03
 0.10263270626E+03 0.84797784873E+02 0.77455307912E+02 0.81741330811E+02 0.10030072566E+03
 0.13723625924E+03 0.19899348601E+03 0.29488945348E+03 0.42459677392E+03 0.54364355940E+03
 0.50081720445E+03 0.24059749314E+03 -.15696081389E+02 0.47367794631E+01 0.27460742913E+03
 0.50518054467E+03 0.51591823260E+03 0.40178680722E+03 0.30326510316E+03 0.25537125210E+03
 0.25858216444E+03 0.30513743048E+03 0.38488867281E+03 0.48223097611E+03 0.57758052141E+03
 0.66889992554E+03 0.72689514362E+03 0.69486047436E+03 0.57081109304E+03 0.41648705394E+03
 0.28087190818E+03 0.16524603532E+03 0.10622706815E+03 0.73887617272E+02 0.59385866342E+02
 0.57225966446E+02 0.64986440989E+02 0.82087269575E+02 0.10832158661E+03 0.14248648757E+03
 0.18126129396E+03 0.21876920345E+03 0.24659619944E+03 0.25654539296E+03 0.24549489352E+03
 0.21714046236E+03 0.17976033863E+03 0.14253046663E+03 0.11215123133E+03 0.91946735571E+02
 0.82556756003E+02 0.84177327097E+02 0.98549523933E+02 0.12874796723E+03 0.17949366931E+03
 0.25787181445E+03 0.36489889995E+03 0.47524369047E+03 0.49532032038E+03 0.37000576204E+03
 0.22929672221E+03 0.24916357458E+03 0.41101388151E+03 0.52465821455E+03 0.48569628603E+03
 0.38123700358E+03 0.30224290388E+03 0.27338008558E+03 0.29583294857E+03 0.35892956745E+03
 0.43877876691E+03 0.48486029786E+03 0.49757708479E+03 0.54475652906E+03 0.63270709016E+03
 0.65878157492E+03 0.55821039906E+03 0.40038891157E+03 0.26194322095E+03 0.14951854133E+03
 0.96312922985E+02 0.69365019832E+02 0.60004210540E+02 0.63679005975E+02 0.79122196978E+02
 0.10676258843E+03 0.14662006394E+03 0.19613890215E+03 0.24888657081E+03 0.29478911428E+03
 0.32223652394E+03 0.32259165368E+03 0.29587106696E+03 0.25134592496E+03 0.20198395674E+03
 0.15815067756E+03 0.12516040929E+03 0.10413613182E+03 0.94088128280E+02 0.94046853550E+02
 0.10468511083E+03 0.12773911464E+03 0.16587411226E+03 0.22341406219E+03 0.30245745783E+03
 0.39179066711E+03 0.45627863472E+03 0.45414268870E+03 0.42328647778E+03 0.43498667685E+03
 0.47900988776E+03 0.47608158552E+03 0.40546085124E+03 0.32516785246E+03 0.27409968379E+03
 0.26813390849E+03 0.30951912740E+03 0.38574711557E+03 0.45258032939E+03 0.43070609674E+03
 0.34846534623E+03 0.34356475886E+03 0.45991574094E+03 0.55837241865E+03 0.51172705409E+03
 0.37097110041E+03 0.24022784109E+03 0.13723847225E+03 0.90346402115E+02 0.68522453475E+02
 0.64143336446E+02 0.74057337350E+02 0.98387574526E+02 0.13861672680E+03 0.19471551876E+03
 0.26196968571E+03 0.32921458468E+03 0.38075004215E+03 0.40201626178E+03 0.38648820616E+03
 0.34017957131E+03 0.27893857738E+03 0.21945637675E+03 0.17201891593E+03 0.13966068463E+03
 0.12099575309E+03 0.11307837503E+03 0.11352766810E+03 0.12169384096E+03 0.13810366861E+03
 0.16369778618E+03 0.20046034558E+03 0.25039807339E+03 0.30976878110E+03 0.36550361056E+03
 0.40233960258E+03 0.41648507905E+03 0.41873703868E+03 0.40436418566E+03 0.36148893465E+03
 0.30306715595E+03 0.25261836586E+03 0.22845419005E+03 0.24122106727E+03 0.29521546058E+03
 0.38015106509E+03 0.44691717979E+03 0.40965883959E+03 0.30275338287E+03 0.27769236485E+03
 0.38775297687E+03 0.49462047805E+03 0.46444422439E+03 0.33871488049E+03 0.21950043502E+03
 0.12990013100E+03 0.88887990943E+02 0.71339054202E+02 0.71297030804E+02 0.87208757561E+02
 0.12051692669E+03 0.17337988005E+03 0.24532386258E+03 0.32905429782E+03 0.40780593473E+03
 0.45942069203E+03 0.46733273777E+03 0.43044279525E+03 0.36384005418E+03 0.28973755921E+03
 0.22589417273E+03 0.18038519215E+03 0.15353515851E+03 0.14177639404E+03 0.14022762748E+03
 0.14455810854E+03 0.15232666391E+03 0.16277677738E+03 0.17592377233E+03 0.19276971527E+03
 0.21522516565E+03 0.24320280241E+03 0.27189222388E+03 0.29379682568E+03 0.30366978186E+03
 0.29901726803E+03 0.27824789570E+03 0.24441780992E+03 0.20826597091E+03 0.18268190450E+03
 0.17734415962E+03 0.20019908299E+03 0.25757608926E+03 0.34483865160E+03 0.43009808807E+03
 0.44485262582E+03 0.39971448113E+03 0.39470531928E+03 0.46111994924E+03 0.50114354991E+03
 0.43503991882E+03 0.31186053673E+03 0.20334687229E+03 0.12832161303E+03 0.92102408947E+02
 0.77489685253E+02 0.80518689568E+02 0.10106902810E+03 0.14140081920E+03 0.20356095594E+03
 0.28602046657E+03 0.37920727978E+03 0.46206476668E+03 0.50748242240E+03 0.49849253114E+03
 0.44095739228E+03 0.35923130907E+03 0.27984342707E+03 0.21899107068E+03 0.18137684654E+03
 0.16510192721E+03 0.16521174396E+03 0.17500946107E+03 0.18747699657E+03 0.19744752342E+03
 0.20255849911E+03 0.20275422430E+03 0.19998966434E+03 0.19765619018E+03 0.19825450106E+03
 0.20122894118E+03 0.20342640418E+03 0.20138525639E+03 0.19269417299E+03 0.17655498730E+03