  64  64   0   0
  0.2044415E+02  0.1093746E-08  0.1093746E-08  0.1093746E-08  0.3000000E-14
   2000.00000000000     
  CAR 
 liquid Si                               
      9.39376281     -7.81070943  301      5.81132738      1.00000000
     -7.811  0.0000E+00  0.0000E+00
     -7.753  0.0000E+00  0.0000E+00
     -7.696  0.0000E+00  0.0000E+00
     -7.639  0.0000E+00  0.0000E+00
     -7.581  0.0000E+00  0.0000E+00
     -7.524  0.0000E+00  0.0000E+00
     -7.467  0.0000E+00  0.0000E+00
     -7.409  0.1232E-15  0.7401E-17
     -7.352  0.3837E-12  0.2226E-13
     -7.295  0.1527E-09  0.8882E-11
     -7.237  0.3142E-07  0.1831E-08
     -7.180  0.3353E-05  0.1960E-06
     -7.123  0.1869E-03  0.1100E-04
     -7.065  0.5492E-02  0.3278E-03
     -7.008  0.8590E-01  0.5272E-02
     -6.950  0.7217E+00  0.4672E-01
     -6.893  0.3280E+01  0.2348E+00
     -6.836  0.8099E+01  0.6984E+00
     -6.778  0.1089E+02  0.1321E+01
     -6.721  0.7962E+01  0.1776E+01
     -6.664  0.3163E+01  0.1956E+01
     -6.606  0.6887E+00  0.1996E+01
     -6.549  0.1787E+00  0.2006E+01
     -6.492  0.6821E+00  0.2045E+01
     -6.434  0.2641E+01  0.2196E+01
     -6.377  0.6085E+01  0.2544E+01
     -6.320  0.8726E+01  0.3044E+01
     -6.262  0.8511E+01  0.3532E+01
     -6.205  0.6368E+01  0.3897E+01
     -6.148  0.4260E+01  0.4141E+01
     -6.090  0.3467E+01  0.4339E+01
     -6.033  0.4562E+01  0.4599E+01
     -5.976  0.7261E+01  0.5014E+01
     -5.918  0.9805E+01  0.5575E+01
     -5.861  0.1036E+02  0.6168E+01
     -5.804  0.1005E+02  0.6743E+01
     -5.746  0.1072E+02  0.7357E+01
     -5.689  0.1166E+02  0.8025E+01
     -5.631  0.1235E+02  0.8733E+01
     -5.574  0.1368E+02  0.9516E+01
     -5.517  0.1473E+02  0.1036E+02
     -5.459  0.1388E+02  0.1115E+02
     -5.402  0.1234E+02  0.1186E+02
     -5.345  0.1219E+02  0.1255E+02
     -5.287  0.1289E+02  0.1329E+02
     -5.230  0.1253E+02  0.1401E+02
     -5.173  0.1126E+02  0.1465E+02
     -5.115  0.1037E+02  0.1524E+02
     -5.058  0.1070E+02  0.1585E+02
     -5.001  0.1255E+02  0.1657E+02
     -4.943  0.1559E+02  0.1746E+02
     -4.886  0.1830E+02  0.1851E+02
     -4.829  0.1833E+02  0.1956E+02
     -4.771  0.1649E+02  0.2050E+02
     -4.714  0.1601E+02  0.2142E+02
     -4.657  0.1650E+02  0.2236E+02
     -4.599  0.1507E+02  0.2323E+02
     -4.542  0.1310E+02  0.2398E+02
     -4.485  0.1370E+02  0.2476E+02
     -4.427  0.1551E+02  0.2565E+02
     -4.370  0.1584E+02  0.2655E+02
     -4.312  0.1487E+02  0.2740E+02
     -4.255  0.1432E+02  0.2822E+02
     -4.198  0.1438E+02  0.2905E+02
     -4.140  0.1477E+02  0.2989E+02
     -4.083  0.1605E+02  0.3081E+02
     -4.026  0.1743E+02  0.3180E+02
     -3.968  0.1794E+02  0.3283E+02
     -3.911  0.1849E+02  0.3389E+02
     -3.854  0.1956E+02  0.3501E+02
     -3.796  0.1997E+02  0.3615E+02
     -3.739  0.1899E+02  0.3724E+02
     -3.682  0.1791E+02  0.3826E+02
     -3.624  0.1727E+02  0.3925E+02
     -3.567  0.1539E+02  0.4013E+02
     -3.510  0.1244E+02  0.4084E+02
     -3.452  0.1018E+02  0.4143E+02
     -3.395  0.9405E+01  0.4196E+02
     -3.338  0.1039E+02  0.4256E+02
     -3.280  0.1165E+02  0.4322E+02
     -3.223  0.1157E+02  0.4388E+02
     -3.166  0.1159E+02  0.4455E+02
     -3.108  0.1286E+02  0.4528E+02
     -3.051  0.1373E+02  0.4607E+02
     -2.993  0.1353E+02  0.4684E+02
     -2.936  0.1400E+02  0.4764E+02
     -2.879  0.1405E+02  0.4844E+02
     -2.821  0.1161E+02  0.4911E+02
     -2.764  0.9114E+01  0.4963E+02
     -2.707  0.9124E+01  0.5015E+02
     -2.649  0.1035E+02  0.5075E+02
     -2.592  0.1149E+02  0.5140E+02
     -2.535  0.1320E+02  0.5216E+02
     -2.477  0.1570E+02  0.5306E+02
     -2.420  0.1771E+02  0.5407E+02
     -2.363  0.1809E+02  0.5511E+02
     -2.305  0.1726E+02  0.5610E+02
     -2.248  0.1634E+02  0.5703E+02
     -2.191  0.1571E+02  0.5793E+02
     -2.133  0.1561E+02  0.5883E+02
     -2.076  0.1731E+02  0.5982E+02
     -2.019  0.2048E+02  0.6099E+02
     -1.961  0.2126E+02  0.6220E+02
     -1.904  0.1877E+02  0.6328E+02
     -1.846  0.1755E+02  0.6428E+02
     -1.789  0.1990E+02  0.6542E+02
     -1.732  0.2317E+02  0.6675E+02
     -1.674  0.2414E+02  0.6813E+02
     -1.617  0.2241E+02  0.6941E+02
     -1.560  0.2115E+02  0.7062E+02
     -1.502  0.2353E+02  0.7196E+02
     -1.445  0.2772E+02  0.7355E+02
     -1.388  0.2858E+02  0.7518E+02
     -1.330  0.2575E+02  0.7666E+02
     -1.273  0.2253E+02  0.7794E+02
     -1.216  0.2050E+02  0.7911E+02
     -1.158  0.2031E+02  0.8028E+02
     -1.101  0.2143E+02  0.8150E+02
     -1.044  0.2201E+02  0.8276E+02
     -0.986  0.2092E+02  0.8396E+02
     -0.929  0.1933E+02  0.8506E+02
     -0.872  0.1844E+02  0.8612E+02
     -0.814  0.1810E+02  0.8715E+02
     -0.757  0.1897E+02  0.8824E+02
     -0.700  0.2095E+02  0.8944E+02
     -0.642  0.2234E+02  0.9071E+02
     -0.585  0.2299E+02  0.9203E+02
     -0.527  0.2281E+02  0.9333E+02
     -0.470  0.2077E+02  0.9452E+02
     -0.413  0.1796E+02  0.9555E+02
     -0.355  0.1649E+02  0.9649E+02
     -0.298  0.1637E+02  0.9743E+02
     -0.241  0.1629E+02  0.9836E+02
     -0.183  0.1600E+02  0.9927E+02
     -0.126  0.1632E+02  0.1002E+03
     -0.069  0.1811E+02  0.1012E+03
     -0.011  0.2103E+02  0.1024E+03
      0.046  0.2378E+02  0.1038E+03
      0.103  0.2549E+02  0.1053E+03
      0.161  0.2410E+02  0.1066E+03
      0.218  0.1867E+02  0.1077E+03
      0.275  0.1325E+02  0.1085E+03
      0.333  0.1163E+02  0.1091E+03
      0.390  0.1350E+02  0.1099E+03
      0.447  0.1640E+02  0.1108E+03
      0.505  0.1780E+02  0.1119E+03
      0.562  0.1708E+02  0.1128E+03
      0.619  0.1543E+02  0.1137E+03
      0.677  0.1502E+02  0.1146E+03
      0.734  0.1710E+02  0.1156E+03
      0.792  0.2028E+02  0.1167E+03
      0.849  0.2226E+02  0.1180E+03
      0.906  0.2188E+02  0.1192E+03
      0.964  0.1988E+02  0.1204E+03
      1.021  0.1781E+02  0.1214E+03
      1.078  0.1614E+02  0.1223E+03
      1.136  0.1581E+02  0.1232E+03
      1.193  0.1813E+02  0.1243E+03
      1.250  0.2127E+02  0.1255E+03
      1.308  0.2296E+02  0.1268E+03
      1.365  0.2435E+02  0.1282E+03
      1.422  0.2670E+02  0.1297E+03
      1.480  0.2850E+02  0.1314E+03
      1.537  0.2800E+02  0.1330E+03
      1.594  0.2620E+02  0.1345E+03
      1.652  0.2604E+02  0.1359E+03
      1.709  0.2760E+02  0.1375E+03
      1.766  0.2805E+02  0.1391E+03
      1.824  0.2706E+02  0.1407E+03
      1.881  0.2604E+02  0.1422E+03
      1.938  0.2479E+02  0.1436E+03
      1.996  0.2297E+02  0.1449E+03
      2.053  0.2153E+02  0.1461E+03
      2.111  0.2186E+02  0.1474E+03
      2.168  0.2432E+02  0.1488E+03
      2.225  0.2757E+02  0.1503E+03
      2.283  0.2844E+02  0.1520E+03
      2.340  0.2624E+02  0.1535E+03
      2.397  0.2510E+02  0.1549E+03
      2.455  0.2659E+02  0.1564E+03
      2.512  0.2652E+02  0.1580E+03
      2.569  0.2352E+02  0.1593E+03
      2.627  0.2230E+02  0.1606E+03
      2.684  0.2411E+02  0.1620E+03
      2.741  0.2522E+02  0.1634E+03
      2.799  0.2515E+02  0.1648E+03
      2.856  0.2513E+02  0.1663E+03
      2.913  0.2496E+02  0.1677E+03
      2.971  0.2513E+02  0.1691E+03
      3.028  0.2656E+02  0.1707E+03
      3.085  0.2904E+02  0.1723E+03
      3.143  0.3060E+02  0.1741E+03
      3.200  0.3045E+02  0.1758E+03
      3.258  0.3049E+02  0.1776E+03
      3.315  0.3203E+02  0.1794E+03
      3.372  0.3395E+02  0.1813E+03
      3.430  0.3398E+02  0.1833E+03
      3.487  0.3188E+02  0.1851E+03
      3.544  0.3030E+02  0.1868E+03
      3.602  0.2997E+02  0.1885E+03
      3.659  0.2855E+02  0.1902E+03
      3.716  0.2660E+02  0.1917E+03
      3.774  0.2745E+02  0.1933E+03
      3.831  0.3081E+02  0.1950E+03
      3.888  0.3334E+02  0.1969E+03
      3.946  0.3390E+02  0.1989E+03
      4.003  0.3372E+02  0.2008E+03
      4.060  0.3379E+02  0.2027E+03
      4.118  0.3351E+02  0.2047E+03
      4.175  0.3227E+02  0.2065E+03
      4.232  0.3072E+02  0.2083E+03
      4.290  0.3005E+02  0.2100E+03
      4.347  0.3093E+02  0.2118E+03
      4.404  0.3221E+02  0.2136E+03
      4.462  0.3284E+02  0.2155E+03
      4.519  0.3353E+02  0.2174E+03
      4.577  0.3424E+02  0.2194E+03
      4.634  0.3435E+02  0.2213E+03
      4.691  0.3399E+02  0.2233E+03
      4.749  0.3341E+02  0.2252E+03
      4.806  0.3293E+02  0.2271E+03
      4.863  0.3211E+02  0.2289E+03
      4.921  0.3074E+02  0.2306E+03
      4.978  0.3068E+02  0.2324E+03
      5.035  0.3261E+02  0.2343E+03
      5.093  0.3368E+02  0.2362E+03
      5.150  0.3194E+02  0.2380E+03
      5.207  0.2966E+02  0.2397E+03
      5.265  0.2923E+02  0.2414E+03
      5.322  0.2962E+02  0.2431E+03
      5.379  0.2892E+02  0.2447E+03
      5.437  0.2789E+02  0.2463E+03
      5.494  0.2871E+02  0.2480E+03
      5.551  0.3117E+02  0.2498E+03
      5.609  0.3260E+02  0.2516E+03
      5.666  0.3195E+02  0.2534E+03
      5.723  0.3053E+02  0.2552E+03
      5.781  0.2939E+02  0.2569E+03
      5.838  0.2852E+02  0.2585E+03
      5.896  0.2669E+02  0.2600E+03
      5.953  0.2435E+02  0.2614E+03
      6.010  0.2371E+02  0.2628E+03
      6.068  0.2433E+02  0.2642E+03
      6.125  0.2553E+02  0.2656E+03
      6.182  0.2727E+02  0.2672E+03
      6.240  0.2808E+02  0.2688E+03
      6.297  0.2763E+02  0.2704E+03
      6.354  0.2809E+02  0.2720E+03
      6.412  0.3041E+02  0.2737E+03
      6.469  0.3259E+02  0.2756E+03
      6.526  0.3238E+02  0.2774E+03
      6.584  0.3022E+02  0.2792E+03
      6.641  0.2894E+02  0.2808E+03
      6.698  0.3035E+02  0.2826E+03
      6.756  0.3255E+02  0.2844E+03
      6.813  0.3306E+02  0.2863E+03
      6.870  0.3251E+02  0.2882E+03
      6.928  0.3288E+02  0.2901E+03
      6.985  0.3417E+02  0.2920E+03
      7.042  0.3506E+02  0.2940E+03
      7.100  0.3531E+02  0.2960E+03
      7.157  0.3403E+02  0.2980E+03
      7.215  0.3041E+02  0.2997E+03
      7.272  0.2681E+02  0.3012E+03
      7.329  0.2606E+02  0.3027E+03
      7.387  0.2818E+02  0.3043E+03
      7.444  0.3036E+02  0.3061E+03
      7.501  0.3007E+02  0.3078E+03
      7.559  0.2739E+02  0.3094E+03
      7.616  0.2380E+02  0.3107E+03
      7.673  0.2117E+02  0.3119E+03
      7.731  0.2063E+02  0.3131E+03
      7.788  0.2181E+02  0.3144E+03
      7.845  0.2379E+02  0.3157E+03
      7.903  0.2535E+02  0.3172E+03
      7.960  0.2560E+02  0.3186E+03
      8.017  0.2449E+02  0.3200E+03
      8.075  0.2236E+02  0.3213E+03
      8.132  0.2034E+02  0.3225E+03
      8.189  0.1893E+02  0.3235E+03
      8.247  0.1741E+02  0.3245E+03
      8.304  0.1617E+02  0.3255E+03
      8.361  0.1608E+02  0.3264E+03
      8.419  0.1462E+02  0.3272E+03
      8.476  0.9282E+01  0.3277E+03
      8.534  0.3526E+01  0.3280E+03
      8.591  0.7540E+00  0.3280E+03
      8.648  0.8847E-01  0.3280E+03
      8.706  0.5610E-02  0.3280E+03
      8.763  0.1900E-03  0.3280E+03
      8.820  0.3396E-05  0.3280E+03
      8.878  0.3175E-07  0.3280E+03
      8.935  0.1541E-09  0.3280E+03
      8.992  0.3864E-12  0.3280E+03
      9.050  0.1232E-15  0.3280E+03
      9.107  0.0000E+00  0.3280E+03
      9.164  0.0000E+00  0.3280E+03
      9.222  0.0000E+00  0.3280E+03
      9.279  0.0000E+00  0.3280E+03
      9.336  0.0000E+00  0.3280E+03
      9.394  0.0000E+00  0.3280E+03
      9.46183291     -7.86436834  301      5.81210893      1.00000000
     -7.864  0.0000E+00  0.0000E+00
     -7.807  0.0000E+00  0.0000E+00
     -7.749  0.0000E+00  0.0000E+00
     -7.691  0.0000E+00  0.0000E+00
     -7.633  0.0000E+00  0.0000E+00
     -7.576  0.0000E+00  0.0000E+00
     -7.518  0.0000E+00  0.0000E+00
     -7.460  0.0000E+00  0.0000E+00
     -7.402  0.1608E-13  0.9289E-15
     -7.345  0.6400E-11  0.3706E-12
     -7.287  0.1326E-08  0.7694E-10
     -7.229  0.1429E-06  0.8332E-08
     -7.171  0.8044E-05  0.4729E-06
     -7.114  0.2370E-03  0.1416E-04
     -7.056  0.3668E-02  0.2260E-03
     -6.998  0.2995E-01  0.1956E-02
     -6.940  0.1294E+00  0.9429E-02
     -6.883  0.2968E+00  0.2657E-01
     -6.825  0.3620E+00  0.4748E-01
     -6.767  0.2349E+00  0.6104E-01
     -6.709  0.8115E-01  0.6573E-01
     -6.652  0.1689E-01  0.6671E-01
     -6.594  0.2100E-01  0.6792E-01
     -6.536  0.9788E-01  0.7357E-01
     -6.478  0.2594E+00  0.8855E-01
     -6.421  0.3657E+00  0.1097E+00
     -6.363  0.2743E+00  0.1255E+00
     -6.305  0.1094E+00  0.1318E+00
     -6.247  0.2319E-01  0.1332E+00
     -6.190  0.3305E-02  0.1334E+00
     -6.132  0.8819E-02  0.1339E+00
     -6.074  0.5576E-01  0.1371E+00
     -6.016  0.1900E+00  0.1481E+00
     -5.958  0.3442E+00  0.1679E+00
     -5.901  0.3317E+00  0.1871E+00
     -5.843  0.1724E+00  0.1971E+00
     -5.785  0.6888E-01  0.2010E+00
     -5.727  0.1216E+00  0.2081E+00
     -5.670  0.3305E+00  0.2271E+00
     -5.612  0.5674E+00  0.2599E+00
     -5.554  0.6273E+00  0.2961E+00
     -5.496  0.5002E+00  0.3250E+00
     -5.439  0.4050E+00  0.3484E+00
     -5.381  0.4124E+00  0.3722E+00
     -5.323  0.3719E+00  0.3937E+00
     -5.265  0.3379E+00  0.4132E+00
     -5.208  0.3939E+00  0.4360E+00
     -5.150  0.4032E+00  0.4593E+00
     -5.092  0.3839E+00  0.4814E+00
     -5.034  0.4012E+00  0.5046E+00
     -4.977  0.3181E+00  0.5230E+00
     -4.919  0.1682E+00  0.5327E+00
     -4.861  0.1573E+00  0.5418E+00
     -4.803  0.3382E+00  0.5613E+00
     -4.746  0.5719E+00  0.5944E+00
     -4.688  0.7302E+00  0.6365E+00
     -4.630  0.8069E+00  0.6831E+00
     -4.572  0.7940E+00  0.7290E+00
     -4.515  0.6600E+00  0.7671E+00
     -4.457  0.4505E+00  0.7931E+00
     -4.399  0.3471E+00  0.8132E+00
     -4.341  0.3902E+00  0.8357E+00
     -4.284  0.3914E+00  0.8583E+00
     -4.226  0.3682E+00  0.8796E+00
     -4.168  0.4380E+00  0.9049E+00
     -4.110  0.5173E+00  0.9347E+00
     -4.053  0.5911E+00  0.9689E+00
     -3.995  0.6799E+00  0.1008E+01
     -3.937  0.7103E+00  0.1049E+01
     -3.879  0.6628E+00  0.1087E+01
     -3.822  0.5650E+00  0.1120E+01
     -3.764  0.4865E+00  0.1148E+01
     -3.706  0.4413E+00  0.1174E+01
     -3.648  0.3322E+00  0.1193E+01
     -3.591  0.2533E+00  0.1207E+01
     -3.533  0.3443E+00  0.1227E+01
     -3.475  0.4770E+00  0.1255E+01
     -3.417  0.5300E+00  0.1286E+01
     -3.360  0.5442E+00  0.1317E+01
     -3.302  0.5776E+00  0.1350E+01
     -3.244  0.6647E+00  0.1389E+01
     -3.186  0.6685E+00  0.1427E+01
     -3.129  0.5021E+00  0.1456E+01
     -3.071  0.3939E+00  0.1479E+01
     -3.013  0.5180E+00  0.1509E+01
     -2.955  0.6573E+00  0.1547E+01
     -2.898  0.5669E+00  0.1580E+01
     -2.840  0.3790E+00  0.1602E+01
     -2.782  0.3475E+00  0.1622E+01
     -2.724  0.3931E+00  0.1644E+01
     -2.667  0.3475E+00  0.1664E+01
     -2.609  0.3341E+00  0.1684E+01
     -2.551  0.3918E+00  0.1706E+01
     -2.493  0.3752E+00  0.1728E+01
     -2.435  0.4085E+00  0.1752E+01
     -2.378  0.6265E+00  0.1788E+01
     -2.320  0.7606E+00  0.1832E+01
     -2.262  0.6614E+00  0.1870E+01
     -2.204  0.5507E+00  0.1902E+01
     -2.147  0.5183E+00  0.1932E+01
     -2.089  0.5658E+00  0.1964E+01
     -2.031  0.6553E+00  0.2002E+01
     -1.973  0.6095E+00  0.2037E+01
     -1.916  0.4367E+00  0.2063E+01
     -1.858  0.4032E+00  0.2086E+01
     -1.800  0.6038E+00  0.2121E+01
     -1.742  0.8023E+00  0.2167E+01
     -1.685  0.8040E+00  0.2214E+01
     -1.627  0.6512E+00  0.2251E+01
     -1.569  0.5533E+00  0.2283E+01
     -1.511  0.6510E+00  0.2321E+01
     -1.454  0.8050E+00  0.2367E+01
     -1.396  0.8185E+00  0.2414E+01
     -1.338  0.6724E+00  0.2453E+01
     -1.280  0.5539E+00  0.2485E+01
     -1.223  0.5853E+00  0.2519E+01
     -1.165  0.6782E+00  0.2558E+01
     -1.107  0.7667E+00  0.2603E+01
     -1.049  0.8287E+00  0.2650E+01
     -0.992  0.8643E+00  0.2700E+01
     -0.934  0.8621E+00  0.2750E+01
     -0.876  0.7920E+00  0.2796E+01
     -0.818  0.7197E+00  0.2837E+01
     -0.761  0.7797E+00  0.2882E+01
     -0.703  0.1013E+01  0.2941E+01
     -0.645  0.1120E+01  0.3006E+01
     -0.587  0.8850E+00  0.3057E+01
     -0.530  0.6048E+00  0.3092E+01
     -0.472  0.4239E+00  0.3116E+01
     -0.414  0.2574E+00  0.3131E+01
     -0.356  0.2284E+00  0.3144E+01
     -0.299  0.4183E+00  0.3168E+01
     -0.241  0.6393E+00  0.3205E+01
     -0.183  0.6984E+00  0.3246E+01
     -0.125  0.6708E+00  0.3284E+01
     -0.068  0.7128E+00  0.3325E+01
     -0.010  0.8152E+00  0.3373E+01
      0.048  0.8873E+00  0.3424E+01
      0.106  0.8495E+00  0.3473E+01
      0.163  0.6973E+00  0.3513E+01
      0.221  0.5486E+00  0.3545E+01
      0.279  0.4668E+00  0.3572E+01
      0.337  0.3573E+00  0.3592E+01
      0.394  0.2922E+00  0.3609E+01
      0.452  0.4198E+00  0.3634E+01
      0.510  0.6557E+00  0.3671E+01
      0.568  0.8378E+00  0.3720E+01
      0.625  0.7853E+00  0.3765E+01
      0.683  0.5249E+00  0.3795E+01
      0.741  0.4496E+00  0.3821E+01
      0.799  0.6628E+00  0.3860E+01
      0.856  0.7855E+00  0.3905E+01
      0.914  0.6914E+00  0.3945E+01
      0.972  0.6179E+00  0.3981E+01
      1.030  0.6111E+00  0.4016E+01
      1.088  0.5955E+00  0.4050E+01
      1.145  0.5880E+00  0.4084E+01
      1.203  0.6371E+00  0.4121E+01
      1.261  0.7093E+00  0.4162E+01
      1.319  0.7503E+00  0.4205E+01
      1.376  0.7489E+00  0.4249E+01
      1.434  0.7969E+00  0.4295E+01
      1.492  0.9182E+00  0.4348E+01
      1.550  0.9329E+00  0.4402E+01
      1.607  0.8305E+00  0.4450E+01
      1.665  0.7921E+00  0.4495E+01
      1.723  0.8485E+00  0.4544E+01
      1.781  0.8724E+00  0.4595E+01
      1.838  0.8296E+00  0.4643E+01
      1.896  0.7964E+00  0.4689E+01
      1.954  0.7914E+00  0.4734E+01
      2.012  0.7554E+00  0.4778E+01
      2.069  0.7067E+00  0.4819E+01
      2.127  0.7243E+00  0.4861E+01
      2.185  0.7929E+00  0.4906E+01
      2.243  0.8385E+00  0.4955E+01
      2.300  0.8323E+00  0.5003E+01
      2.358  0.8293E+00  0.5051E+01
      2.416  0.8317E+00  0.5099E+01
      2.474  0.8384E+00  0.5147E+01
      2.531  0.8783E+00  0.5198E+01
      2.589  0.8402E+00  0.5247E+01
      2.647  0.7540E+00  0.5290E+01
      2.705  0.7860E+00  0.5335E+01
      2.762  0.8597E+00  0.5385E+01
      2.820  0.8411E+00  0.5434E+01
      2.878  0.7798E+00  0.5479E+01
      2.936  0.8283E+00  0.5527E+01
      2.993  0.1007E+01  0.5585E+01
      3.051  0.1116E+01  0.5649E+01
      3.109  0.9808E+00  0.5706E+01
      3.167  0.7667E+00  0.5750E+01
      3.224  0.7148E+00  0.5791E+01
      3.282  0.8824E+00  0.5842E+01
      3.340  0.1174E+01  0.5910E+01
      3.398  0.1298E+01  0.5985E+01
      3.455  0.1122E+01  0.6050E+01
      3.513  0.9475E+00  0.6105E+01
      3.571  0.9733E+00  0.6161E+01
      3.629  0.1002E+01  0.6219E+01
      3.686  0.9488E+00  0.6273E+01
      3.744  0.9494E+00  0.6328E+01
      3.802  0.9483E+00  0.6383E+01
      3.860  0.8783E+00  0.6434E+01
      3.917  0.8877E+00  0.6485E+01
      3.975  0.1015E+01  0.6544E+01
      4.033  0.1110E+01  0.6608E+01
      4.091  0.1171E+01  0.6675E+01
      4.148  0.1264E+01  0.6748E+01
      4.206  0.1291E+01  0.6823E+01
      4.264  0.1247E+01  0.6895E+01
      4.322  0.1175E+01  0.6963E+01
      4.379  0.1095E+01  0.7026E+01
      4.437  0.1109E+01  0.7090E+01
      4.495  0.1139E+01  0.7156E+01
      4.553  0.1139E+01  0.7222E+01
      4.610  0.1234E+01  0.7293E+01
      4.668  0.1307E+01  0.7369E+01
      4.726  0.1230E+01  0.7440E+01
      4.784  0.1117E+01  0.7504E+01
      4.842  0.9597E+00  0.7560E+01
      4.899  0.7370E+00  0.7602E+01
      4.957  0.6046E+00  0.7637E+01
      5.015  0.6246E+00  0.7673E+01
      5.073  0.7999E+00  0.7719E+01
      5.130  0.1030E+01  0.7779E+01
      5.188  0.1174E+01  0.7847E+01
      5.246  0.1306E+01  0.7922E+01
      5.304  0.1411E+01  0.8004E+01
      5.361  0.1327E+01  0.8080E+01
      5.419  0.1111E+01  0.8144E+01
      5.477  0.1000E+01  0.8202E+01
      5.535  0.1047E+01  0.8263E+01
      5.592  0.1047E+01  0.8323E+01
      5.650  0.9278E+00  0.8377E+01
      5.708  0.8797E+00  0.8427E+01
      5.766  0.9722E+00  0.8484E+01
      5.823  0.1075E+01  0.8546E+01
      5.881  0.1124E+01  0.8611E+01
      5.939  0.1075E+01  0.8673E+01
      5.997  0.8723E+00  0.8723E+01
      6.054  0.6679E+00  0.8762E+01
      6.112  0.6242E+00  0.8798E+01
      6.170  0.8060E+00  0.8844E+01
      6.228  0.1068E+01  0.8906E+01
      6.285  0.1006E+01  0.8964E+01
      6.343  0.6933E+00  0.9004E+01
      6.401  0.5651E+00  0.9037E+01
      6.459  0.7297E+00  0.9079E+01
      6.516  0.1155E+01  0.9146E+01
      6.574  0.1491E+01  0.9232E+01
      6.632  0.1286E+01  0.9306E+01
      6.690  0.9306E+00  0.9360E+01
      6.747  0.8913E+00  0.9411E+01
      6.805  0.9647E+00  0.9467E+01
      6.863  0.9650E+00  0.9523E+01
      6.921  0.9187E+00  0.9576E+01
      6.978  0.9755E+00  0.9632E+01
      7.036  0.1241E+01  0.9704E+01
      7.094  0.1395E+01  0.9784E+01
      7.152  0.1205E+01  0.9854E+01
      7.209  0.9592E+00  0.9909E+01
      7.267  0.9236E+00  0.9963E+01
      7.325  0.9611E+00  0.1002E+02
      7.383  0.8560E+00  0.1007E+02
      7.440  0.7204E+00  0.1011E+02
      7.498  0.6519E+00  0.1015E+02
      7.556  0.5497E+00  0.1018E+02
      7.614  0.4660E+00  0.1021E+02
      7.671  0.6485E+00  0.1024E+02
      7.729  0.1006E+01  0.1030E+02
      7.787  0.1065E+01  0.1036E+02
      7.845  0.8125E+00  0.1041E+02
      7.902  0.6462E+00  0.1045E+02
      7.960  0.6958E+00  0.1049E+02
      8.018  0.9189E+00  0.1054E+02
      8.076  0.1119E+01  0.1060E+02
      8.133  0.1081E+01  0.1067E+02
      8.191  0.9177E+00  0.1072E+02
      8.249  0.7576E+00  0.1076E+02
      8.307  0.6109E+00  0.1080E+02
      8.365  0.5772E+00  0.1083E+02
      8.422  0.6308E+00  0.1087E+02
      8.480  0.5775E+00  0.1090E+02
      8.538  0.3634E+00  0.1092E+02
      8.596  0.1405E+00  0.1093E+02
      8.653  0.3093E-01  0.1093E+02
      8.711  0.3714E-02  0.1093E+02
      8.769  0.2381E-03  0.1093E+02
      8.827  0.8058E-05  0.1093E+02
      8.884  0.1430E-06  0.1093E+02
      8.942  0.1326E-08  0.1093E+02
      9.000  0.6400E-11  0.1093E+02
      9.058  0.1615E-13  0.1093E+02
      9.115  0.0000E+00  0.1093E+02
      9.173  0.0000E+00  0.1093E+02
      9.231  0.0000E+00  0.1093E+02
      9.289  0.0000E+00  0.1093E+02
      9.346  0.0000E+00  0.1093E+02
      9.404  0.0000E+00  0.1093E+02
      9.462  0.0000E+00  0.1093E+02
