 vasp.6.5.0 16Dec24 (build Mar 16 2025 21:55:21) gamma-only                     
  
 executed on             LinuxIFC date 2025.11.04  10:14:18
 running    4 mpi-ranks, with   40 threads/rank, on    1 nodes
 distrk:  each k-point on    4 cores,    1 groups
 distr:  one band on NCORE=   1 cores,    4 groups


--------------------------------------------------------------------------------------------------------


 INCAR:
   SYSTEM = liquid Si
   ISMEAR = 0
   SIGMA = 0.1
   LREAL = Auto
   ALGO = VeryFast
   PREC = Low
   ISYM = 0
   IBRION = 0
   NSW = 30
   POTIM = 3.0
   MDALGO = 2
   SMASS = 1.0
   TEBEG = 2000
   TEEND = 2000
   ISIF = 2

 POTCAR:    PAW_PBE Si 05Jan2001                  
 POTCAR:    PAW_PBE Si 05Jan2001                  
   VRHFIN =Si: s2p2                                                                                 
   LEXCH  = PE                                                                                      
   EATOM  =   103.0669 eV,    7.5752 Ry                                                             
                                                                                                    
   TITEL  = PAW_PBE Si 05Jan2001                                                                    
   LULTRA =        F    use ultrasoft PP ?                                                          
   IUNSCR =        1    unscreen: 0-lin 1-nonlin 2-no                                               
   RPACOR =    1.500    partial core radius                                                         
   POMASS =   28.085; ZVAL   =    4.000    mass and valenz                                          
   RCORE  =    1.900    outmost cutoff radius                                                       
   RWIGS  =    2.480; RWIGS  =    1.312    wigner-seitz radius (au A)                               
   ENMAX  =  245.345; ENMIN  =  184.009 eV                                                          
   ICORE  =        2    local potential                                                             
   LCOR   =        T    correct aug charges                                                         
   LPAW   =        T    paw PP                                                                      
   EAUG   =  322.069                                                                                
   DEXC   =    0.000                                                                                
   RMAX   =    1.950    core radius for proj-oper                                                   
   RAUG   =    1.300    factor for augmentation sphere                                              
   RDEP   =    1.993    radius for radial grids                                                     
   RDEPT  =    1.837    core radius for aug-charge                                                  
                                                                                                    
   Atomic configuration                                                                             
    6 entries                                                                                       
     n  l   j            E        occ.                                                              
     1  0  0.50     -1785.8828   2.0000                                                             
     2  0  0.50      -139.4969   2.0000                                                             
     2  1  1.50       -95.5546   6.0000                                                             
     3  0  0.50       -10.8127   2.0000                                                             
     3  1  0.50        -4.0811   2.0000                                                             
     3  2  1.50        -4.0817   0.0000                                                             
   Description                                                                                      
     l       E           TYP  RCUT    TYP  RCUT                                                     
     0    -10.8127223     23  1.900                                                                 
     0     -7.6451159     23  1.900                                                                 
     1     -4.0811372     23  1.900                                                                 
     1      2.4879257     23  1.900                                                                 
     2     -4.0817478      7  1.900                                                                 
  local pseudopotential read in
  partial core-charges read in
  partial kinetic energy density read in
  atomic valenz-charges read in
  non local Contribution for L=           0  read in
    real space projection operators read in
  non local Contribution for L=           0  read in
    real space projection operators read in
  non local Contribution for L=           1  read in
    real space projection operators read in
  non local Contribution for L=           1  read in
    real space projection operators read in
    PAW grid and wavefunctions read in
 
   number of l-projection  operators is LMAX  =           4
   number of lm-projection operators is LMMAX =           8
 
 Optimization of the real space projectors (new method)

 maximal supplied QI-value         = 19.84
 optimisation between [QCUT,QGAM] = [  6.94, 13.89] = [ 13.51, 54.02] Ry 
 Optimized for a Real-space Cutoff    1.43 Angstroem

   l    n(q)    QCUT    max X(q) W(low)/X(q) W(high)/X(q)  e(spline) 
   0      6     6.945   159.560    0.19E-02    0.13E-02    0.67E-07
   0      6     6.945   115.863    0.19E-02    0.13E-02    0.66E-07
   1      5     6.945    87.792    0.57E-03    0.17E-02    0.11E-06
   1      5     6.945    48.448    0.56E-03    0.16E-02    0.11E-06
  PAW_PBE Si 05Jan2001                  :
 energy of atom  1       EATOM= -103.0669
 kinetic energy error for atom=    0.0129 (will be added to EATOM!!)
 
 
 POSCAR: Si64
  positions in direct lattice
  velocities in cartesian coordinates
 
  Using predictor-coordinates on the file



  MD-specific parameters
                MDALGO =   2
                 CNEXP =     9.000   14.000
 exchange-correlation table for PE
   RHO(1)=    0.500       N(1)  =     2000
   RHO(2)=  100.500       N(2)  =     4000
 


--------------------------------------------------------------------------------------------------------


 ion  position               nearest neighbor table
   1  0.084  0.328  0.177-  25 2.21  11 2.24  17 2.65  43 2.77  57 2.98  26 3.02
   2  0.161  0.343  0.643-  44 2.32  12 2.34  58 2.43  26 2.56  34 3.00  19 3.15
   3  0.126  0.909  0.092-  41 2.28  59 2.34   9 2.42  27 2.77  18 2.83  35 2.94
   4  0.123  0.880  0.636-  10 2.51  42 2.59  60 2.66  28 2.71  58 2.79
   5  0.617  0.499  0.237-  15 2.38  63 2.43  61 2.47  37 2.53  24 2.54  33 3.14
   6  0.655  0.328  0.657-  30 2.18  22 2.54  16 2.60  48 2.77  62 2.86
   7  0.648  0.814  0.139-  63 2.29  31 2.43  45 2.54  13 2.59  39 3.04  24 3.09
   8  0.645  0.876  0.579-  14 2.13  32 2.58  64 2.65  46 2.71  23 2.76
   9  0.975  0.042  0.186-  17 2.25  39 2.37   3 2.42  45 2.75  18 2.81  25 2.96
  10  0.981  0.026  0.740-  54 2.24  40 2.25  18 2.37   4 2.51  58 2.51  62 2.62
  11  0.014  0.482  0.292-   1 2.24  37 2.35  19 2.38  55 2.67  26 2.75
  12  0.111  0.479  0.801-  38 2.33   2 2.34  20 2.41  56 2.61  44 3.02  34 3.11
  13  0.508  0.937  0.286-  21 2.26  49 2.41  35 2.58   7 2.59  32 3.05
  14  0.559  0.997  0.705-   8 2.13  22 2.34  36 2.45  29 2.68  50 2.92
  15  0.436  0.612  0.283-   5 2.38  51 2.47  33 2.62  35 2.65  32 2.68
  16  0.496  0.436  0.798-  52 2.39  34 2.46   6 2.60  24 3.12
  17  0.116  0.127  0.309-   9 2.25  26 2.43  42 2.44  57 2.46   1 2.65
  18  0.028  0.094  0.940-  25 2.32  10 2.37  41 2.59   9 2.81   3 2.83  62 3.06
  19  0.068  0.565  0.486-  11 2.38  44 2.54  28 2.56  56 2.58  26 3.08  48 3.14   2 3.15
  20  0.154  0.658  0.922-  60 2.36  12 2.41  51 2.60  27 2.63
  21  0.565  0.100  0.400-  30 2.22  13 2.26  46 2.26  61 2.46  49 2.56  50 2.93
  22  0.677  0.147  0.802-  14 2.34  29 2.50  62 2.53   6 2.54  40 3.13
  23  0.744  0.697  0.430-  63 2.15  48 2.55   8 2.76  28 2.78  39 2.90  32 3.07
  24  0.633  0.562  0.014-   5 2.54  47 2.64  31 3.00  63 3.04   7 3.09  16 3.12
  25  0.951  0.266  0.037-   1 2.21  38 2.22  18 2.32  53 2.34   9 2.96
  26  0.046  0.287  0.447-  54 2.42  17 2.43   2 2.56  11 2.75   1 3.02  19 3.08
  27  0.954  0.788  0.951-  40 2.31  47 2.46  55 2.56  20 2.63   3 2.77
  28  0.982  0.782  0.458-  39 2.49  19 2.56   4 2.71  23 2.78  59 2.89
  29  0.471  0.122  0.896-  36 2.34  22 2.50  34 2.55  14 2.68  41 2.75
  30  0.526  0.258  0.521-   6 2.18  21 2.22  50 2.46  33 2.54  61 2.94
  31  0.463  0.778  0.021-   7 2.43  51 2.54  36 2.85  24 3.00
  32  0.473  0.745  0.485-   8 2.58  15 2.68  52 2.82  13 3.05  23 3.07  35 3.09
  33  0.397  0.403  0.395-  57 2.39  30 2.54  15 2.62  44 2.71  61 2.95   5 3.14
  34  0.326  0.301  0.858-  43 2.35  16 2.46  29 2.55   2 3.00  12 3.11
  35  0.307  0.816  0.267-  59 2.21  51 2.41  13 2.58  15 2.65   3 2.94  32 3.09
  36  0.384  0.937  0.831-  60 2.31  29 2.34  14 2.45  41 2.54  31 2.85
  37  0.812  0.423  0.336-  48 2.10  11 2.35   5 2.53  63 2.94  61 3.01
  38  0.931  0.405  0.889-  25 2.22  12 2.33  62 2.36  47 2.45  56 3.01
  39  0.866  0.889  0.293-   9 2.37  46 2.44  28 2.49  63 2.75  23 2.90   7 3.04  45 3.07
  40  0.835  0.910  0.827-  10 2.25  27 2.31  64 2.44  45 2.73  22 3.13
  41  0.252  0.040  0.992-   3 2.28  36 2.54  18 2.59  29 2.75
  42  0.223  0.011  0.467-  50 2.20  17 2.44   4 2.59  58 2.67
  43  0.276  0.413  0.034-  34 2.35   1 2.77  51 2.81
  44  0.273  0.512  0.580-  52 2.17   2 2.32  19 2.54  33 2.71  12 3.02
  45  0.768  0.993  0.053-   7 2.54  53 2.57  40 2.73   9 2.75  39 3.07
  46  0.759  0.033  0.425-  21 2.26  39 2.44   8 2.71  54 2.81
  47  0.835  0.607  0.889-  64 2.34  38 2.45  27 2.46  56 2.55  24 2.64  55 2.70
  48  0.793  0.486  0.517-  37 2.10  23 2.55  56 2.57   6 2.77  19 3.14
  49  0.478  0.130  0.185-  61 2.19  57 2.39  13 2.41  21 2.56
  50  0.360  0.115  0.572-  42 2.20  58 2.30  30 2.46  14 2.92  21 2.93
  51  0.291  0.656  0.116-  35 2.41  15 2.47  59 2.50  31 2.54  20 2.60  43 2.81
  52  0.409  0.605  0.691-  44 2.17  16 2.39  60 2.41  32 2.82
  53  0.747  0.225  0.083-  25 2.34  45 2.57  61 2.63
  54  0.941  0.139  0.574-  10 2.24  62 2.37  26 2.42  46 2.81  58 2.85
  55  0.923  0.627  0.118-  63 2.23  27 2.56  11 2.67  47 2.70  59 2.82
  56  0.933  0.582  0.680-  64 2.46  47 2.55  48 2.57  19 2.58  12 2.61  38 3.01
  57  0.314  0.232  0.287-  33 2.39  49 2.39  17 2.46   1 2.98  61 3.10
  58  0.179  0.125  0.678-  50 2.30   2 2.43  10 2.51  42 2.67   4 2.79  54 2.85
  59  0.119  0.749  0.235-  35 2.21   3 2.34  51 2.50  55 2.82  28 2.89
  60  0.280  0.761  0.779-  36 2.31  20 2.36  52 2.41   4 2.66
  61  0.593  0.275  0.261-  49 2.19  21 2.46   5 2.47  53 2.63  30 2.94  33 2.95  37 3.01  57 3.10

  62  0.882  0.244  0.754-  38 2.36  54 2.37  22 2.53  10 2.62   6 2.86  18 3.06
  63  0.761  0.667  0.236-  23 2.15  55 2.23   7 2.29   5 2.43  39 2.75  37 2.94  24 3.04
  64  0.765  0.724  0.725-  47 2.34  40 2.44  56 2.46   8 2.65
 

IMPORTANT INFORMATION: All symmetrisations will be switched off!
NOSYMM: (Re-)initialisation of all symmetry stuff for point group C_1.


----------------------------------------------------------------------------------------

                                     Primitive cell                                     

  volume of cell :    1308.4254

  direct lattice vectors                    reciprocal lattice vectors
    10.937456000  0.000000000  0.000000000     0.091428939  0.000000000  0.000000000
     0.000000000 10.937456000  0.000000000     0.000000000  0.091428939  0.000000000
     0.000000000  0.000000000 10.937456000     0.000000000  0.000000000  0.091428939

  length of vectors
    10.937456000 10.937456000 10.937456000     0.091428939  0.091428939  0.091428939

  position of ions in fractional coordinates (direct lattice)
     0.084215788  0.328168960  0.176727330
     0.161184400  0.343257670  0.643118290
     0.125518270  0.908875400  0.092361363
     0.122750860  0.879562580  0.635869560
     0.616843410  0.498509480  0.237226930
     0.654844500  0.327647590  0.657223510
     0.647532850  0.814487920  0.139465410
     0.645165230  0.876372490  0.578739340
     0.975156580  0.042102742  0.186124370
     0.980759030  0.026308152  0.740001310
     0.013981141  0.482154650  0.292261560
     0.110858540  0.478559450  0.800870090
     0.508051140  0.936833130  0.285878450
     0.559114340  0.997456420  0.704627440
     0.436455340  0.611550600  0.283155750
     0.496248360  0.435561970  0.797828740
     0.115780640  0.127400990  0.309370710
     0.027948685  0.093782159  0.940257360
     0.067686542  0.565430150  0.486039610
     0.154193520  0.657602790  0.921502440
     0.565035420  0.099745992  0.399837310
     0.677450030  0.147083360  0.801869950
     0.743573570  0.697063080  0.430348730
     0.633016240  0.561957840  0.014128615
     0.951370830  0.266470210  0.037088896
     0.045820502  0.286969600  0.446877760
     0.954085420  0.787856840  0.951018110
     0.981523870  0.781577030  0.457911030
     0.470536730  0.121735830  0.896332700
     0.526174440  0.258188050  0.521224650
     0.463245480  0.777731440  0.021238982
     0.472587160  0.745342470  0.484898200
     0.396559740  0.402932410  0.394597320
     0.325916180  0.300794740  0.857752180
     0.306561740  0.815581270  0.267456600
     0.384375070  0.937455250  0.831175850
     0.812191850  0.423056390  0.336472980
     0.931329010  0.404798740  0.889477930
     0.866182490  0.888576270  0.293479400
     0.834881950  0.909711860  0.827078740
     0.252444990  0.040307453  0.992059850
     0.223294810  0.010688260  0.466780570
     0.275740990  0.412888460  0.034499052
     0.273130950  0.512262010  0.580110190
     0.767867660  0.993300000  0.052802178
     0.759360970  0.033082133  0.424982450
     0.834858840  0.607328500  0.889011430
     0.792983680  0.486381290  0.516621550
     0.477979350  0.130345590  0.184947060
     0.359699330  0.115090450  0.571548150
     0.290639030  0.655753920  0.116370220
     0.408600940  0.605053780  0.691310720
     0.746561980  0.225095970  0.082838011
     0.940608900  0.138903350  0.573815630
     0.923223980  0.627469590  0.118487630
     0.933415910  0.582089670  0.679543890
     0.313868460  0.231919150  0.287227030
     0.178593420  0.124596100  0.677950220
     0.118859460  0.749241300  0.234608470
     0.279858740  0.761005540  0.779160890
     0.592827370  0.275025820  0.261302900
     0.882430600  0.244012490  0.754000620
     0.761466220  0.667471920  0.236426900
     0.764976540  0.724433290  0.724678910

  ion indices of the primitive-cell ions
   primitive index   ion index
                 1           1
                 2           2
                 3           3
                 4           4
                 5           5
                 6           6
                 7           7
                 8           8
                 9           9
                10          10
                11          11
                12          12
                13          13
                14          14
                15          15
                16          16
                17          17
                18          18
                19          19
                20          20
                21          21
                22          22
                23          23
                24          24
                25          25
                26          26
                27          27
                28          28
                29          29
                30          30
                31          31
                32          32
                33          33
                34          34
                35          35
                36          36
                37          37
                38          38
                39          39
                40          40
                41          41
                42          42
                43          43
                44          44
                45          45
                46          46
                47          47
                48          48
                49          49
                50          50
                51          51
                52          52
                53          53
                54          54
                55          55
                56          56
                57          57
                58          58
                59          59
                60          60
                61          61
                62          62
                63          63
                64          64

----------------------------------------------------------------------------------------

 
 
 KPOINTS: Gamma-point only                        

Automatic generation of k-mesh.
 Grid dimensions read from file:
 generate k-points for:    1    1    1

 Generating k-lattice:

  Cartesian coordinates                     Fractional coordinates (reciprocal lattice)
     0.091428939  0.000000000  0.000000000     1.000000000  0.000000000  0.000000000
     0.000000000  0.091428939  0.000000000     0.000000000  1.000000000  0.000000000
     0.000000000  0.000000000  0.091428939     0.000000000  0.000000000  1.000000000

  Length of vectors
     0.091428939  0.091428939  0.091428939

  Shift w.r.t. Gamma in fractional coordinates (k-lattice)
     0.000000000  0.000000000  0.000000000

 
 Subroutine IBZKPT returns following result:
 ===========================================
 
 Found      1 irreducible k-points:
 
 Following reciprocal coordinates:
            Coordinates               Weight
  0.000000  0.000000  0.000000      1.000000
 
 Following cartesian coordinates:
            Coordinates               Weight
  0.000000  0.000000  0.000000      1.000000
 


--------------------------------------------------------------------------------------------------------




 Dimension of arrays:
   k-points           NKPTS =      1   k-points in BZ     NKDIM =      1   number of bands    NBANDS=    164
   number of dos      NEDOS =    301   number of ions     NIONS =     64
   non local maximal  LDIM  =      4   non local SUM 2l+1 LMDIM =      8
   total plane-waves  NPLWV =  46656
   max r-space proj   IRMAX =    484   max aug-charges    IRDMAX=    553
   dimension x,y,z NGX =    36 NGY =   36 NGZ =   36
   dimension x,y,z NGXF=    48 NGYF=   48 NGZF=   48
   support grid    NGXF=    48 NGYF=   48 NGZF=   48
   ions per type =              64
   NGX,Y,Z   is equivalent  to a cutoff of   5.47,  5.47,  5.47 a.u.
   NGXF,Y,Z  is equivalent  to a cutoff of   7.30,  7.30,  7.30 a.u.

 SYSTEM =  liquid Si                               
 POSCAR =  Si64                                    

 Startparameter for this run:
   NWRITE =      2    write-flag & timer
   PREC   = low       normal or accurate (medium, high low for compatibility)
   ISTART =      0    job   : 0-new  1-cont  2-samecut
   ICHARG =      2    charge: 1-file 2-atom 10-const
   ISPIN  =      1    spin polarized calculation?
   LNONCOLLINEAR =      F non collinear calculations
   LSORBIT =      F    spin-orbit coupling
   INIWAV =      1    electr: 0-lowe 1-rand  2-diag
   LASPH  =      F    aspherical Exc in radial PAW
 Electronic Relaxation 1
   ENCUT  =  184.0 eV  13.52 Ry    3.68 a.u.  12.10 12.10 12.10*2*pi/ulx,y,z
   ENINI  =  184.0     initial cutoff
   ENAUG  =  322.1 eV  augmentation charge cutoff
   NELM   =     60;   NELMIN=  2; NELMDL=-12     # of ELM steps 
   EDIFF  = 0.1E-03   stopping-criterion for ELM
   LREAL  =      T    real-space projection
   NLSPLINE    = F    spline interpolate recip. space projectors
   LCOMPAT=      F    compatible to vasp.4.4
   GGA_COMPAT  = T    GGA compatible to vasp.4.4-vasp.4.6
   LMAXPAW     = -100 max onsite density
   LMAXMIX     =    2 max onsite mixed and CHGCAR
   VOSKOWN=      0    Vosko Wilk Nusair interpolation
   ROPT   =   -0.01000
 Ionic relaxation
   EDIFFG = 0.1E-02   stopping-criterion for IOM
   NSW    =     30    number of steps for IOM
   NBLOCK =      1;   KBLOCK =     30    inner block; outer block 
   IBRION =      0    ionic relax: 0-MD 1-quasi-New 2-CG
   NFREE  =      0    steps in history (QN), initial steepest desc. (CG)
   ISIF   =      2    stress and relaxation
   IWAVPR =     12    prediction:  0-non 1-charg 2-wave 3-comb
   ISYM   =      0    0-nonsym 1-usesym 2-fastsym
   LCORR  =      T    Harris-Foulkes like correction to forces

   POTIM  = 3.0000    time-step for ionic-motion
   TEIN   = 2210.1    initial temperature
   TEBEG  = 2000.0;   TEEND  =2000.0 temperature during run
   SMASS  =   1.00    Nose mass-parameter (am)
   estimated Nose-frequenzy (Omega)   =  0.72E+14 period in steps = 0.29E+02 mass=   0.911E-27a.u.
   SCALEE = 1.0000    scale energy and forces
   NPACO  =    256;   APACO  = 10.0  distance and # of slots for P.C.
   PSTRESS=    0.0 pullay stress

  Mass of Ions in am
   POMASS =  28.09
  Ionic Valenz
   ZVAL   =   4.00
  Atomic Wigner-Seitz radii
   RWIGS  =  -1.00
  virtual crystal weights 
   VCA    =   1.00
   NELECT =     256.0000    total number of electrons
   NUPDOWN=      -1.0000    fix difference up-down

 DOS related values:
   EMIN   =  10.00;   EMAX   =-10.00  energy-range for DOS
   EFERMI =   0.00;   METHOD = LEGACY      
   ISMEAR =     0;   SIGMA  =   0.10  broadening in eV -4-tet -1-fermi 0-gaus
   EFERMI_NEDOS =   21; number of points for ismear=-14 and -15

 Electronic relaxation 2 (details)
   IALGO  =     48    algorithm
   LDIAG  =      T    sub-space diagonalisation (order eigenvalues)
   LSUBROT=      F    optimize rotation matrix (better conditioning)
   TURBO    =      0    0=normal 1=particle mesh
   IRESTART =      0    0=no restart 2=restart with 2 vectors
   NREBOOT  =      0    no. of reboots
   NMIN     =      0    reboot dimension
   EREF     =   0.00    reference energy to select bands
   IMIX   =      4    mixing-type and parameters
     AMIX     =   0.40;   BMIX     =  1.00
     AMIX_MAG =   1.60;   BMIX_MAG =  1.00
     AMIN     =   0.10
     WC   =   100.;   INIMIX=   1;  MIXPRE=   1;  MAXMIX= -45

 Intra band minimization:
   WEIMIN = 0.0010     energy-eigenvalue tresh-hold
   EBREAK =  0.15E-06  absolut break condition
   DEPER  =   0.30     relativ break condition  

   TIME   =   0.40     timestep for ELM

  volume/ion in A,a.u.               =      20.44       137.96
  Fermi-wavevector in a.u.,A,eV,Ry     =   0.950397  1.795990 12.289529  0.903255
  Thomas-Fermi vector in A             =   2.078770
 
 Write flags
   LWAVE        =      T    write WAVECAR
   LDOWNSAMPLE  =      F    k-point downsampling of WAVECAR
   LCHARG       =      T    write CHGCAR
   LVTOT        =      F    write LOCPOT, total local potential
   LVHAR        =      F    write LOCPOT, Hartree potential only
   WRT_POTENTIAL= false  ! write potential to hdf5 file
   LELF         =      F    write electronic localiz. function (ELF)
   LORBIT       =      0    0 simple, 1 ext, 2 COOP (PROOUT), +10 PAW based schemes


 Python interface
   PLUGINS active      =      F    recompile with -DPLUGINS to activate
 
 Dipole corrections
   LMONO      =      F    monopole corrections only (constant potential shift)
   LDIPOL     =      F    correct potential (dipole corrections)
   IDIPOL     =      0    1-x, 2-y, 3-z, 4-all directions 
   EPSILON    =  1.0000000 bulk dielectric constant
   LVACPOTAV  =      F  vacuum potentials using an averaging scheme for the charge density
   VACPOTFLAT =  0.1000000 required flatness to determine vacuum potential
 
Coulomb truncation method
  LTRUNCATE          =      F  Coulomb kernel truncation to be used
  IDIMENSIONALITY    =      3  Dimensionality of cutoff (0 molecules / 2 surfaces)
  ISURFACE           =     -1  Direction of surface normal
  LCOARSEN           =      F  Coarsen the charge grid before padding, preferred

 
 Exchange correlation treatment:
   GGA     = PE    functional components
   XC_C    = 1    coefficients multiplying the functional components
   LIBXC   =     F    Libxc                    
   VOSKOWN =     0    Vosko Wilk Nusair interpolation
   LHFCALC =     F    Hartree Fock is set to
   LHFONE  =     F    Hartree Fock one center treatment
   AEXX    =    0.0000 exact exchange contribution

 Parameters of functionals:
   PE:
     No parameter
 
 Van der Waals corrections
   IVDW    =     0    specifies the selected vdW correction

 Linear response parameters
   LEPSILON=     F    determine dielectric tensor
   LRPA    =     F    only Hartree local field effects (RPA)
   LNABLA  =     F    use nabla operator in PAW spheres
   LVEL    =     F    velocity operator in full k-point grid
   CSHIFT  =0.1000    complex shift for real part using Kramers Kronig
   OMEGAMAX=  -1.0    maximum frequency
   DEG_THRESHOLD= 0.2000000E-02 threshold for treating states as degnerate
   RTIME   =   -0.100 relaxation time in fs
  (WPLASMAI=    0.000 imaginary part of plasma frequency in eV, 0.658/RTIME)
   DFIELD  = 0.0000000 0.0000000 0.0000000 field for delta impulse in time
 
  Optional k-point grid parameters
   LKPOINTS_OPT  =     F    use optional k-point grid
   KPOINTS_OPT_MODE=     1    mode for optional k-point grid
 
 Orbital magnetization related:
   ORBITALMAG=     F  switch on orbital magnetization
   LCHIMAG   =     F  perturbation theory with respect to B field
   DQ        =  0.001000  dq finite difference perturbation B field
   LLRAUG    =     F  two centre corrections for induced B field
   LBONE     =     F  B-component reconstruction in AE one-centre
   LVGVCALC  =     T  calculate vGv susceptibility
   LVGVAPPL  =     F  apply vGv susceptibility instead of pGv for G=0

 Random number generation:
   RANDOM_GENERATOR = DEFAULT
   PCG_SEED         = not used


--------------------------------------------------------------------------------------------------------


 molecular dynamics for ions
   using nose mass (canonical ensemble)
 charge density and potential will be updated during run
 non-spin polarized calculation
 RMM-DIIS sequential band-by-band
 perform sub-space diagonalisation
    before iterative eigenvector-optimisation
 modified Broyden-mixing scheme, WC =      100.0
 initial mixing is a Kerker type mixing with AMIX =  0.4000 and BMIX =      1.0000
 Hartree-type preconditioning will be used
 using additional bands           36
 real space projection scheme for non local part
 use partial core corrections
 calculate Harris-corrections to forces 
   (improved forces if not selfconsistent)
 use gradient corrections 
 use of overlap-Matrix (Vanderbilt PP)
 Gauss-broadening in eV      SIGMA  =   0.10


--------------------------------------------------------------------------------------------------------


  energy-cutoff  :      184.01
  volume of cell :     1308.43
      direct lattice vectors                 reciprocal lattice vectors
    10.937456000  0.000000000  0.000000000     0.091428939  0.000000000  0.000000000
     0.000000000 10.937456000  0.000000000     0.000000000  0.091428939  0.000000000
     0.000000000  0.000000000 10.937456000     0.000000000  0.000000000  0.091428939

  length of vectors
    10.937456000 10.937456000 10.937456000     0.091428939  0.091428939  0.091428939


 
 k-points in units of 2pi/SCALE and weight: Gamma-point only                        
   0.00000000  0.00000000  0.00000000       1.000
 
 k-points in reciprocal lattice and weights: Gamma-point only                        
   0.00000000  0.00000000  0.00000000       1.000
 
 position of ions in fractional coordinates (direct lattice) 
   0.08421579  0.32816896  0.17672733
   0.16118440  0.34325767  0.64311829
   0.12551827  0.90887540  0.09236136
   0.12275086  0.87956258  0.63586956
   0.61684341  0.49850948  0.23722693
   0.65484450  0.32764759  0.65722351
   0.64753285  0.81448792  0.13946541
   0.64516523  0.87637249  0.57873934
   0.97515658  0.04210274  0.18612437
   0.98075903  0.02630815  0.74000131
   0.01398114  0.48215465  0.29226156
   0.11085854  0.47855945  0.80087009
   0.50805114  0.93683313  0.28587845
   0.55911434  0.99745642  0.70462744
   0.43645534  0.61155060  0.28315575
   0.49624836  0.43556197  0.79782874
   0.11578064  0.12740099  0.30937071
   0.02794869  0.09378216  0.94025736
   0.06768654  0.56543015  0.48603961
   0.15419352  0.65760279  0.92150244
   0.56503542  0.09974599  0.39983731
   0.67745003  0.14708336  0.80186995
   0.74357357  0.69706308  0.43034873
   0.63301624  0.56195784  0.01412862
   0.95137083  0.26647021  0.03708890
   0.04582050  0.28696960  0.44687776
   0.95408542  0.78785684  0.95101811
   0.98152387  0.78157703  0.45791103
   0.47053673  0.12173583  0.89633270
   0.52617444  0.25818805  0.52122465
   0.46324548  0.77773144  0.02123898
   0.47258716  0.74534247  0.48489820
   0.39655974  0.40293241  0.39459732
   0.32591618  0.30079474  0.85775218
   0.30656174  0.81558127  0.26745660
   0.38437507  0.93745525  0.83117585
   0.81219185  0.42305639  0.33647298
   0.93132901  0.40479874  0.88947793
   0.86618249  0.88857627  0.29347940
   0.83488195  0.90971186  0.82707874
   0.25244499  0.04030745  0.99205985
   0.22329481  0.01068826  0.46678057
   0.27574099  0.41288846  0.03449905
   0.27313095  0.51226201  0.58011019
   0.76786766  0.99330000  0.05280218
   0.75936097  0.03308213  0.42498245
   0.83485884  0.60732850  0.88901143
   0.79298368  0.48638129  0.51662155
   0.47797935  0.13034559  0.18494706
   0.35969933  0.11509045  0.57154815
   0.29063903  0.65575392  0.11637022
   0.40860094  0.60505378  0.69131072
   0.74656198  0.22509597  0.08283801
   0.94060890  0.13890335  0.57381563
   0.92322398  0.62746959  0.11848763
   0.93341591  0.58208967  0.67954389
   0.31386846  0.23191915  0.28722703
   0.17859342  0.12459610  0.67795022
   0.11885946  0.74924130  0.23460847
   0.27985874  0.76100554  0.77916089
   0.59282737  0.27502582  0.26130290
   0.88243060  0.24401249  0.75400062
   0.76146622  0.66747192  0.23642690
   0.76497654  0.72443329  0.72467891
 
 position of ions in cartesian coordinates  (Angst):
   0.92110648  3.58933356  1.93294740
   1.76294728  3.75436566  7.03407800
   1.37285056  9.94078470  1.01019834
   1.34258213  9.62017702  6.95479533
   6.74669766  5.45242550  2.59465911
   7.16233291  3.58363110  7.18835322
   7.08236206  8.90842579  1.52539679
   7.05646632  9.58528555  6.32993607
  10.66573219  0.46049689  2.03572711
  10.72700874  0.28774425  8.09373177
   0.15291811  5.27354527  3.19659795
   1.21251040  5.23422293  8.75948137
   5.55678699 10.24657114  3.12678297
   6.11528849 10.90963571  7.70683162
   4.77371108  6.68880778  3.09700356
   5.42769460  4.76393988  8.72621674
   1.26634566  1.39344272  3.38372853
   0.30568751  1.02573824 10.28402350
   0.74031857  6.18436739  5.31603685
   1.68648484  7.19250158 10.07889239
   6.18005004  1.09096740  4.37320299
   7.40957990  1.60871778  8.77041730
   8.13280320  7.62409677  4.70692030
   6.92358727  6.14638915  0.15453110
  10.40557659  2.91450620  0.40565817
   0.50115972  3.13871737  4.88770584
  10.43526730  8.61714952 10.40171873
  10.73537414  8.54846438  5.00838174
   5.14647478  1.33148028  9.80359947
   5.75500979  2.82392044  5.70087168
   5.06672705  8.50640340  0.23230043
   5.16890127  8.15215047  5.30355273
   4.33735471  4.40705551  4.31589083
   3.56469388  3.28992923  9.38162673
   3.35300554  8.92038426  2.92529479
   4.20408542 10.25337555  9.09094929
   8.88331262  4.62716065  3.68015841
  10.18637007  4.42746841  9.72862572
   9.47383287  9.71876386  3.20991802
   9.13148459  9.94993344  9.04613733
   2.76110597  0.44086099 10.85061096
   2.44227716  0.11690237  5.10539195
   3.01590495  4.51594936  0.37733186
   2.98735775  5.60284319  6.34492968
   8.39851875 10.86417504  0.57752150
   8.30547720  0.36183437  4.64822685
   9.13123183  6.64262875  9.72352340
   8.67322411  5.31977396  5.65052547
   5.22787811  1.42564916  2.02285033
   3.93419560  1.25879673  6.25128274
   3.17885160  7.17227965  1.27279416
   4.46905480  6.61774910  7.56118058
   8.16548881  2.46197727  0.90603710
  10.28786846  1.51924928  6.27608321
  10.09772166  6.86292103  1.29595324
  10.20919545  6.36658015  7.43248140
   3.43292247  2.53660550  3.14153300
   1.95335767  1.36276436  7.41505070
   1.30002011  8.19479375  2.56601982
   3.06094265  8.32346461  8.52203795
   6.48402327  3.00808281  2.85798897
   9.65154586  2.66887587  8.24684861
   8.32850328  7.30044476  2.58590882
   8.36689725  7.92345723  7.92614369
 


--------------------------------------------------------------------------------------------------------


 use serial FFT for orbitals x direction half grid
 k-point     1 :   0.0000 0.0000 0.0000  plane waves:    3721

 maximum and minimum number of plane-waves per node :      3721     3721

 maximum number of plane-waves:      3721
 maximum index in each direction: 
   IXMAX=   12   IYMAX=   12   IZMAX=   12
   IXMIN=    0   IYMIN=  -12   IZMIN=  -12


 serial   3D FFT for wavefunctions
 parallel 3D FFT for charge:
    minimum data exchange during FFTs selected (reduces bandwidth)


 total amount of memory used by VASP MPI-rank0    39761. kBytes
=======================================================================

   base                                    :      30000. kBytes
   nonlr-proj                              :       2539. kBytes
   fftplans                                :       1264. kBytes
   grid                                    :       3250. kBytes
   one-center                              :         98. kBytes
   wavefun                                 :       2610. kBytes
 
     INWAV:  cpu time      0.0005: real time      0.0000
 Broyden mixing: mesh for mixing (old mesh)
   NGX = 25   NGY = 25   NGZ = 25
  (NGX  = 48   NGY  = 48   NGZ  = 48)
  gives a total of  15625 points

 initial charge density was supplied:
 charge density of overlapping atoms calculated
 number of electron     256.0000000 magnetization 
 keeping initial charge density in first step


--------------------------------------------------------------------------------------------------------


 Maximum index for non-local projection operator           69
 Maximum index for augmentation-charges          100 (set IRDMAX)


--------------------------------------------------------------------------------------------------------


 First call to EWALD:  gamma=   0.162
 Maximum number of real-space cells   3x   3x   3
 Maximum number of reciprocal cells   3x   3x   3

    FEWALD:  cpu time      1.7061: real time      0.0427


--------------------------------------- Ionic step        1  -------------------------------------------




--------------------------------------- Iteration      1(   1)  ---------------------------------------


    POTLOK:  cpu time      0.4511: real time      0.0114
    SETDIJ:  cpu time      0.1143: real time      0.0029
    EDDIAG:  cpu time      3.5241: real time      0.0881
  RMM-DIIS:  cpu time      3.9260: real time      0.0982
    ORTHCH:  cpu time      0.3572: real time      0.0089
       DOS:  cpu time      0.0124: real time      0.0003
    --------------------------------------------
      LOOP:  cpu time      8.3857: real time      0.2099

 eigenvalue-minimisations  :   164
 total energy-change (2. order) : 0.1508619E+04  (-0.4415627E+04)
 number of electron     256.0000000 magnetization 
 augmentation part      256.0000000 magnetization 

 Free energy of the ion-electron system (eV)
  ---------------------------------------------------
  alpha Z        PSCENC =       105.38177171
  Ewald energy   TEWEN  =     -7126.69769741
  -Hartree energ DENC   =      -532.75335955
  -exchange      EXHF   =         0.00000000
  -V(xc)+E(xc)   XCENC  =      -599.03336011
  PAW double counting   =      5639.92317535    -4513.95313856
  entropy T*S    EENTRO =        -0.10303718
  eigenvalues    EBANDS =      1940.40032790
  atomic energy  EATOM  =      6595.45443641
  Solvation  Ediel_sol  =         0.00000000
  ---------------------------------------------------
  free energy    TOTEN  =      1508.61911857 eV

  energy without entropy =     1508.72215575  energy(sigma->0) =     1508.67063716


--------------------------------------------------------------------------------------------------------




--------------------------------------- Iteration      1(   2)  ---------------------------------------


    EDDIAG:  cpu time      3.1898: real time      0.0798
  RMM-DIIS:  cpu time      3.7935: real time      0.0948
    ORTHCH:  cpu time      0.3441: real time      0.0086
       DOS:  cpu time      0.0105: real time      0.0003
    --------------------------------------------
      LOOP:  cpu time      7.3379: real time      0.1835

 eigenvalue-minimisations  :   164
 total energy-change (2. order) :-0.1231050E+04  (-0.1251497E+04)
 number of electron     256.0000000 magnetization 
 augmentation part      256.0000000 magnetization 

 Free energy of the ion-electron system (eV)
  ---------------------------------------------------
  alpha Z        PSCENC =       105.38177171
  Ewald energy   TEWEN  =     -7126.69769741
  -Hartree energ DENC   =      -532.75335955
  -exchange      EXHF   =         0.00000000
  -V(xc)+E(xc)   XCENC  =      -599.03336011
  PAW double counting   =      5639.92317535    -4513.95313856
  entropy T*S    EENTRO =        -0.00038818
  eigenvalues    EBANDS =       709.24809833
  atomic energy  EATOM  =      6595.45443641
  Solvation  Ediel_sol  =         0.00000000
  ---------------------------------------------------
  free energy    TOTEN  =       277.56953800 eV

  energy without entropy =      277.56992618  energy(sigma->0) =      277.56973209


--------------------------------------------------------------------------------------------------------




--------------------------------------- Iteration      1(   3)  ---------------------------------------


    EDDIAG:  cpu time      3.1311: real time      0.0783
  RMM-DIIS:  cpu time      3.7517: real time      0.0938
    ORTHCH:  cpu time      0.3463: real time      0.0087
       DOS:  cpu time      0.0107: real time      0.0003
    --------------------------------------------
      LOOP:  cpu time      7.2398: real time      0.1810

 eigenvalue-minimisations  :   164
 total energy-change (2. order) :-0.3401655E+03  (-0.4193613E+03)
 number of electron     256.0000000 magnetization 
 augmentation part      256.0000000 magnetization 

 Free energy of the ion-electron system (eV)
  ---------------------------------------------------
  alpha Z        PSCENC =       105.38177171
  Ewald energy   TEWEN  =     -7126.69769741
  -Hartree energ DENC   =      -532.75335955
  -exchange      EXHF   =         0.00000000
  -V(xc)+E(xc)   XCENC  =      -599.03336011
  PAW double counting   =      5639.92317535    -4513.95313856
  entropy T*S    EENTRO =        -0.04718763
  eigenvalues    EBANDS =       369.12939596
  atomic energy  EATOM  =      6595.45443641
  Solvation  Ediel_sol  =         0.00000000
  ---------------------------------------------------
  free energy    TOTEN  =       -62.59596383 eV

  energy without entropy =      -62.54877619  energy(sigma->0) =      -62.57237001


--------------------------------------------------------------------------------------------------------




--------------------------------------- Iteration      1(   4)  ---------------------------------------


    EDDIAG:  cpu time      3.1549: real time      0.0789
  RMM-DIIS:  cpu time      3.7722: real time      0.0943
    ORTHCH:  cpu time      0.3458: real time      0.0086
       DOS:  cpu time      0.0107: real time      0.0003
    --------------------------------------------
      LOOP:  cpu time      7.2836: real time      0.1822

 eigenvalue-minimisations  :   164
 total energy-change (2. order) :-0.1273348E+03  (-0.1440604E+03)
 number of electron     256.0000000 magnetization 
 augmentation part      256.0000000 magnetization 

 Free energy of the ion-electron system (eV)
  ---------------------------------------------------
  alpha Z        PSCENC =       105.38177171
  Ewald energy   TEWEN  =     -7126.69769741
  -Hartree energ DENC   =      -532.75335955
  -exchange      EXHF   =         0.00000000
  -V(xc)+E(xc)   XCENC  =      -599.03336011
  PAW double counting   =      5639.92317535    -4513.95313856
  entropy T*S    EENTRO =        -0.07381511
  eigenvalues    EBANDS =       241.82120545
  atomic energy  EATOM  =      6595.45443641
  Solvation  Ediel_sol  =         0.00000000
  ---------------------------------------------------
  free energy    TOTEN  =      -189.93078181 eV

  energy without entropy =     -189.85696670  energy(sigma->0) =     -189.89387426


--------------------------------------------------------------------------------------------------------




--------------------------------------- Iteration      1(   5)  ---------------------------------------


    EDDIAG:  cpu time      3.2052: real time      0.0802
  RMM-DIIS:  cpu time      3.9658: real time      0.0992
    ORTHCH:  cpu time      0.3622: real time      0.0091
       DOS:  cpu time      0.0126: real time      0.0003
    --------------------------------------------
      LOOP:  cpu time      7.5458: real time      0.1887

 eigenvalue-minimisations  :   164
 total energy-change (2. order) :-0.6151670E+02  (-0.5917402E+02)
 number of electron     256.0000000 magnetization 
 augmentation part      256.0000000 magnetization 

 Free energy of the ion-electron system (eV)
  ---------------------------------------------------
  alpha Z        PSCENC =       105.38177171
  Ewald energy   TEWEN  =     -7126.69769741
  -Hartree energ DENC   =      -532.75335955
  -exchange      EXHF   =         0.00000000
  -V(xc)+E(xc)   XCENC  =      -599.03336011
  PAW double counting   =      5639.92317535    -4513.95313856
  entropy T*S    EENTRO =        -0.08421764
  eigenvalues    EBANDS =       180.31490584
  atomic energy  EATOM  =      6595.45443641
  Solvation  Ediel_sol  =         0.00000000
  ---------------------------------------------------
  free energy    TOTEN  =      -251.44748395 eV

  energy without entropy =     -251.36326631  energy(sigma->0) =     -251.40537513


--------------------------------------------------------------------------------------------------------




--------------------------------------- Iteration      1(   6)  ---------------------------------------


    EDDIAG:  cpu time      3.1206: real time      0.0781
  RMM-DIIS:  cpu time      3.7307: real time      0.0933
    ORTHCH:  cpu time      0.3476: real time      0.0087
       DOS:  cpu time      0.0120: real time      0.0003
    --------------------------------------------
      LOOP:  cpu time      7.2110: real time      0.1804

 eigenvalue-minimisations  :   164
 total energy-change (2. order) :-0.2840268E+02  (-0.2544866E+02)
 number of electron     256.0000000 magnetization 
 augmentation part      256.0000000 magnetization 

 Free energy of the ion-electron system (eV)
  ---------------------------------------------------
  alpha Z        PSCENC =       105.38177171
  Ewald energy   TEWEN  =     -7126.69769741
  -Hartree energ DENC   =      -532.75335955
  -exchange      EXHF   =         0.00000000
  -V(xc)+E(xc)   XCENC  =      -599.03336011
  PAW double counting   =      5639.92317535    -4513.95313856
  entropy T*S    EENTRO =        -0.12074355
  eigenvalues    EBANDS =       151.94874775
  atomic energy  EATOM  =      6595.45443641
  Solvation  Ediel_sol  =         0.00000000
  ---------------------------------------------------
  free energy    TOTEN  =      -279.85016795 eV

  energy without entropy =     -279.72942440  energy(sigma->0) =     -279.78979618


--------------------------------------------------------------------------------------------------------




--------------------------------------- Iteration      1(   7)  ---------------------------------------


    EDDIAG:  cpu time      3.1281: real time      0.0782
  RMM-DIIS:  cpu time      3.7413: real time      0.0935
    ORTHCH:  cpu time      0.3426: real time      0.0086
       DOS:  cpu time      0.0115: real time      0.0003
    --------------------------------------------
      LOOP:  cpu time      7.2234: real time      0.1806

 eigenvalue-minimisations  :   164
 total energy-change (2. order) :-0.1345975E+02  (-0.1215254E+02)
 number of electron     256.0000000 magnetization 
 augmentation part      256.0000000 magnetization 

 Free energy of the ion-electron system (eV)
  ---------------------------------------------------
  alpha Z        PSCENC =       105.38177171
  Ewald energy   TEWEN  =     -7126.69769741
  -Hartree energ DENC   =      -532.75335955
  -exchange      EXHF   =         0.00000000
  -V(xc)+E(xc)   XCENC  =      -599.03336011
  PAW double counting   =      5639.92317535    -4513.95313856
  entropy T*S    EENTRO =        -0.13111052
  eigenvalues    EBANDS =       138.49936379
  atomic energy  EATOM  =      6595.45443641
  Solvation  Ediel_sol  =         0.00000000
  ---------------------------------------------------
  free energy    TOTEN  =      -293.30991888 eV

  energy without entropy =     -293.17880836  energy(sigma->0) =     -293.24436362


--------------------------------------------------------------------------------------------------------




--------------------------------------- Iteration      1(   8)  ---------------------------------------


    EDDIAG:  cpu time      3.1238: real time      0.0781
  RMM-DIIS:  cpu time      3.7531: real time      0.0938
    ORTHCH:  cpu time      0.3451: real time      0.0086
       DOS:  cpu time      0.0124: real time      0.0003
    --------------------------------------------
      LOOP:  cpu time      7.2344: real time      0.1809

 eigenvalue-minimisations  :   164
 total energy-change (2. order) :-0.6975045E+01  (-0.6102236E+01)
 number of electron     256.0000000 magnetization 
 augmentation part      256.0000000 magnetization 

 Free energy of the ion-electron system (eV)
  ---------------------------------------------------
  alpha Z        PSCENC =       105.38177171
  Ewald energy   TEWEN  =     -7126.69769741
  -Hartree energ DENC   =      -532.75335955
  -exchange      EXHF   =         0.00000000
  -V(xc)+E(xc)   XCENC  =      -599.03336011
  PAW double counting   =      5639.92317535    -4513.95313856
  entropy T*S    EENTRO =        -0.13550272
  eigenvalues    EBANDS =       131.52871130
  atomic energy  EATOM  =      6595.45443641
  Solvation  Ediel_sol  =         0.00000000
  ---------------------------------------------------
  free energy    TOTEN  =      -300.28496357 eV

  energy without entropy =     -300.14946085  energy(sigma->0) =     -300.21721221


--------------------------------------------------------------------------------------------------------




--------------------------------------- Iteration      1(   9)  ---------------------------------------


    EDDIAG:  cpu time      3.1248: real time      0.0781
  RMM-DIIS:  cpu time      7.4908: real time      0.1874
    ORTHCH:  cpu time      0.3516: real time      0.0088
       DOS:  cpu time      0.0111: real time      0.0003
    --------------------------------------------
      LOOP:  cpu time     10.9784: real time      0.2746

 eigenvalue-minimisations  :   387
 total energy-change (2. order) :-0.6439810E+01  (-0.6133484E+01)
 number of electron     256.0000000 magnetization 
 augmentation part      256.0000000 magnetization 

 Free energy of the ion-electron system (eV)
  ---------------------------------------------------
  alpha Z        PSCENC =       105.38177171
  Ewald energy   TEWEN  =     -7126.69769741
  -Hartree energ DENC   =      -532.75335955
  -exchange      EXHF   =         0.00000000
  -V(xc)+E(xc)   XCENC  =      -599.03336011
  PAW double counting   =      5639.92317535    -4513.95313856
  entropy T*S    EENTRO =        -0.11545374
  eigenvalues    EBANDS =       125.06885261
  atomic energy  EATOM  =      6595.45443641
  Solvation  Ediel_sol  =         0.00000000
  ---------------------------------------------------
  free energy    TOTEN  =      -306.72477329 eV

  energy without entropy =     -306.60931954  energy(sigma->0) =     -306.66704641


--------------------------------------------------------------------------------------------------------




--------------------------------------- Iteration      1(  10)  ---------------------------------------


    EDDIAG:  cpu time      3.3469: real time      0.0837
  RMM-DIIS:  cpu time      7.3335: real time      0.1834
    ORTHCH:  cpu time      0.3640: real time      0.0091
       DOS:  cpu time      0.0116: real time      0.0003
    --------------------------------------------
      LOOP:  cpu time     11.0561: real time      0.2765

 eigenvalue-minimisations  :   383
 total energy-change (2. order) :-0.9753788E+00  (-0.8913993E+00)
 number of electron     256.0000000 magnetization 
 augmentation part      256.0000000 magnetization 

 Free energy of the ion-electron system (eV)
  ---------------------------------------------------
  alpha Z        PSCENC =       105.38177171
  Ewald energy   TEWEN  =     -7126.69769741
  -Hartree energ DENC   =      -532.75335955
  -exchange      EXHF   =         0.00000000
  -V(xc)+E(xc)   XCENC  =      -599.03336011
  PAW double counting   =      5639.92317535    -4513.95313856
  entropy T*S    EENTRO =        -0.13919084
  eigenvalues    EBANDS =       124.11721089
  atomic energy  EATOM  =      6595.45443641
  Solvation  Ediel_sol  =         0.00000000
  ---------------------------------------------------
  free energy    TOTEN  =      -307.70015210 eV

  energy without entropy =     -307.56096126  energy(sigma->0) =     -307.63055668


--------------------------------------------------------------------------------------------------------




--------------------------------------- Iteration      1(  11)  ---------------------------------------


    EDDIAG:  cpu time      3.2168: real time      0.0804
  RMM-DIIS:  cpu time      7.4348: real time      0.1859
    ORTHCH:  cpu time      0.3494: real time      0.0087
       DOS:  cpu time      0.0110: real time      0.0003
    --------------------------------------------
      LOOP:  cpu time     11.0120: real time      0.2753

 eigenvalue-minimisations  :   381
 total energy-change (2. order) :-0.2473280E+00  (-0.1527297E+00)
 number of electron     256.0000000 magnetization 
 augmentation part      256.0000000 magnetization 

 Free energy of the ion-electron system (eV)
  ---------------------------------------------------
  alpha Z        PSCENC =       105.38177171
  Ewald energy   TEWEN  =     -7126.69769741
  -Hartree energ DENC   =      -532.75335955
  -exchange      EXHF   =         0.00000000
  -V(xc)+E(xc)   XCENC  =      -599.03336011
  PAW double counting   =      5639.92317535    -4513.95313856
  entropy T*S    EENTRO =        -0.15726242
  eigenvalues    EBANDS =       123.88795444
  atomic energy  EATOM  =      6595.45443641
  Solvation  Ediel_sol  =         0.00000000
  ---------------------------------------------------
  free energy    TOTEN  =      -307.94748013 eV

  energy without entropy =     -307.79021771  energy(sigma->0) =     -307.86884892


--------------------------------------------------------------------------------------------------------




--------------------------------------- Iteration      1(  12)  ---------------------------------------


    EDDIAG:  cpu time      3.1956: real time      0.0799
  RMM-DIIS:  cpu time      7.1510: real time      0.1788
    ORTHCH:  cpu time      0.3515: real time      0.0088
       DOS:  cpu time      0.0128: real time      0.0003
    CHARGE:  cpu time      1.1062: real time      0.0277
    MIXING:  cpu time      0.0533: real time      0.0013
    --------------------------------------------
      LOOP:  cpu time     11.8706: real time      0.2968

 eigenvalue-minimisations  :   372
 total energy-change (2. order) :-0.6626994E-01  (-0.4453839E-01)
 number of electron     256.0000463 magnetization 
 augmentation part      -15.4577648 magnetization 

 Broyden mixing:
  rms(total) = 0.31135E+01    rms(broyden)= 0.31133E+01
  rms(prec ) = 0.34160E+01
  weight for this iteration     100.00

 Free energy of the ion-electron system (eV)
  ---------------------------------------------------
  alpha Z        PSCENC =       105.38177171
  Ewald energy   TEWEN  =     -7126.69769741
  -Hartree energ DENC   =      -532.75335955
  -exchange      EXHF   =         0.00000000
  -V(xc)+E(xc)   XCENC  =      -599.03336011
  PAW double counting   =      5639.92317535    -4513.95313856
  entropy T*S    EENTRO =        -0.15885223
  eigenvalues    EBANDS =       123.82327431
  atomic energy  EATOM  =      6595.45443641
  Solvation  Ediel_sol  =         0.00000000
  ---------------------------------------------------
  free energy    TOTEN  =      -308.01375007 eV

  energy without entropy =     -307.85489785  energy(sigma->0) =     -307.93432396


--------------------------------------------------------------------------------------------------------




--------------------------------------- Iteration      1(  13)  ---------------------------------------


    POTLOK:  cpu time      0.4570: real time      0.0115
    SETDIJ:  cpu time      0.0721: real time      0.0018
    EDDIAG:  cpu time      3.2193: real time      0.0805
  RMM-DIIS:  cpu time      9.8667: real time      0.2468
    ORTHCH:  cpu time      0.3734: real time      0.0093
       DOS:  cpu time      0.0120: real time      0.0003
    CHARGE:  cpu time      1.1020: real time      0.0276
    MIXING:  cpu time      0.0503: real time      0.0013
    --------------------------------------------
      LOOP:  cpu time     15.1554: real time      0.3791

 eigenvalue-minimisations  :   529
 total energy-change (2. order) : 0.5248716E+01  (-0.1285569E+01)
 number of electron     256.0000415 magnetization 
 augmentation part      -15.3726937 magnetization 

 Broyden mixing:
  rms(total) = 0.18260E+01    rms(broyden)= 0.18260E+01
  rms(prec ) = 0.19239E+01
  weight for this iteration     100.00

 eigenvalues of (default mixing * dielectric matrix)
  average eigenvalue GAMMA=   2.3097
  2.3097

 Free energy of the ion-electron system (eV)
  ---------------------------------------------------
  alpha Z        PSCENC =       105.38177171
  Ewald energy   TEWEN  =     -7126.69769741
  -Hartree energ DENC   =      -573.13815789
  -exchange      EXHF   =         0.00000000
  -V(xc)+E(xc)   XCENC  =      -594.19058380
  PAW double counting   =     13624.92232694   -12500.87277677
  entropy T*S    EENTRO =        -0.17720855
  eigenvalues    EBANDS =       166.55285494
  atomic energy  EATOM  =      6595.45443641
  Solvation  Ediel_sol  =         0.00000000
  ---------------------------------------------------
  free energy    TOTEN  =      -302.76503442 eV

  energy without entropy =     -302.58782587  energy(sigma->0) =     -302.67643015


--------------------------------------------------------------------------------------------------------




--------------------------------------- Iteration      1(  14)  ---------------------------------------


    POTLOK:  cpu time      0.3976: real time      0.0099
    SETDIJ:  cpu time      0.0696: real time      0.0018
    EDDIAG:  cpu time      3.2028: real time      0.0800
  RMM-DIIS:  cpu time      8.6840: real time      0.2171
    ORTHCH:  cpu time      0.3538: real time      0.0088
       DOS:  cpu time      0.0126: real time      0.0003
    CHARGE:  cpu time      1.0924: real time      0.0273
    MIXING:  cpu time      0.0484: real time      0.0012
    --------------------------------------------
      LOOP:  cpu time     13.8592: real time      0.3465

 eigenvalue-minimisations  :   468
 total energy-change (2. order) : 0.1080647E+01  (-0.3135860E+00)
 number of electron     256.0000439 magnetization 
 augmentation part      -15.3489995 magnetization 

 Broyden mixing:
  rms(total) = 0.44774E+00    rms(broyden)= 0.44772E+00
  rms(prec ) = 0.50821E+00
  weight for this iteration     100.00

 eigenvalues of (default mixing * dielectric matrix)
  average eigenvalue GAMMA=   1.6727
  0.9766  2.3688

 Free energy of the ion-electron system (eV)
  ---------------------------------------------------
  alpha Z        PSCENC =       105.38177171
  Ewald energy   TEWEN  =     -7126.69769741
  -Hartree energ DENC   =      -603.00199474
  -exchange      EXHF   =         0.00000000
  -V(xc)+E(xc)   XCENC  =      -588.77174518
  PAW double counting   =     27164.35658389   -26042.11073649
  entropy T*S    EENTRO =        -0.18100740
  eigenvalues    EBANDS =       193.88600198
  atomic energy  EATOM  =      6595.45443641
  Solvation  Ediel_sol  =         0.00000000
  ---------------------------------------------------
  free energy    TOTEN  =      -301.68438724 eV

  energy without entropy =     -301.50337983  energy(sigma->0) =     -301.59388354


--------------------------------------------------------------------------------------------------------




--------------------------------------- Iteration      1(  15)  ---------------------------------------


    POTLOK:  cpu time      0.3719: real time      0.0093
    SETDIJ:  cpu time      0.0614: real time      0.0015
    EDDIAG:  cpu time      3.1938: real time      0.0798
  RMM-DIIS:  cpu time      6.7968: real time      0.1699
    ORTHCH:  cpu time      0.3549: real time      0.0089
       DOS:  cpu time      0.0123: real time      0.0003
    CHARGE:  cpu time      1.0890: real time      0.0272
    MIXING:  cpu time      0.0541: real time      0.0014
    --------------------------------------------
      LOOP:  cpu time     11.9336: real time      0.2984

 eigenvalue-minimisations  :   348
 total energy-change (2. order) : 0.7080051E-01  (-0.2855785E-01)
 number of electron     256.0000426 magnetization 
 augmentation part      -15.3538225 magnetization 

 Broyden mixing:
  rms(total) = 0.82785E-01    rms(broyden)= 0.82771E-01
  rms(prec ) = 0.10859E+00
  weight for this iteration     100.00

 eigenvalues of (default mixing * dielectric matrix)
  average eigenvalue GAMMA=   1.5220
  2.3465  0.8712  1.3483

 Free energy of the ion-electron system (eV)
  ---------------------------------------------------
  alpha Z        PSCENC =       105.38177171
  Ewald energy   TEWEN  =     -7126.69769741
  -Hartree energ DENC   =      -611.31823371
  -exchange      EXHF   =         0.00000000
  -V(xc)+E(xc)   XCENC  =      -587.11958907
  PAW double counting   =     31935.83114230   -30814.00803700
  entropy T*S    EENTRO =        -0.18548515
  eigenvalues    EBANDS =       201.04810520
  atomic energy  EATOM  =      6595.45443641
  Solvation  Ediel_sol  =         0.00000000
  ---------------------------------------------------
  free energy    TOTEN  =      -301.61358673 eV

  energy without entropy =     -301.42810157  energy(sigma->0) =     -301.52084415


--------------------------------------------------------------------------------------------------------




--------------------------------------- Iteration      1(  16)  ---------------------------------------


    POTLOK:  cpu time      0.4211: real time      0.0106
    SETDIJ:  cpu time      0.0624: real time      0.0016
    EDDIAG:  cpu time      3.2028: real time      0.0801
  RMM-DIIS:  cpu time      6.7885: real time      0.1698
    ORTHCH:  cpu time      0.3540: real time      0.0088
       DOS:  cpu time      0.0126: real time      0.0003
    CHARGE:  cpu time      1.0927: real time      0.0273
    MIXING:  cpu time      0.0555: real time      0.0014
    --------------------------------------------
      LOOP:  cpu time     11.9924: real time      0.2999

 eigenvalue-minimisations  :   346
 total energy-change (2. order) : 0.3726386E-02  (-0.7710726E-02)
 number of electron     256.0000428 magnetization 
 augmentation part      -15.3627035 magnetization 

 Broyden mixing:
  rms(total) = 0.45341E-01    rms(broyden)= 0.45339E-01
  rms(prec ) = 0.55103E-01
  weight for this iteration     100.00

 eigenvalues of (default mixing * dielectric matrix)
  average eigenvalue GAMMA=   1.6084
  2.2586  2.2586  0.8553  1.0612

 Free energy of the ion-electron system (eV)
  ---------------------------------------------------
  alpha Z        PSCENC =       105.38177171
  Ewald energy   TEWEN  =     -7126.69769741
  -Hartree energ DENC   =      -611.00845533
  -exchange      EXHF   =         0.00000000
  -V(xc)+E(xc)   XCENC  =      -586.94301064
  PAW double counting   =     32215.75714693   -31093.90712465
  entropy T*S    EENTRO =        -0.18562252
  eigenvalues    EBANDS =       200.53869517
  atomic energy  EATOM  =      6595.45443641
  Solvation  Ediel_sol  =         0.00000000
  ---------------------------------------------------
  free energy    TOTEN  =      -301.60986034 eV

  energy without entropy =     -301.42423782  energy(sigma->0) =     -301.51704908


--------------------------------------------------------------------------------------------------------




--------------------------------------- Iteration      1(  17)  ---------------------------------------


    POTLOK:  cpu time      0.3735: real time      0.0093
    SETDIJ:  cpu time      0.0625: real time      0.0016
    EDDIAG:  cpu time      3.2138: real time      0.0804
  RMM-DIIS:  cpu time      6.6521: real time      0.1663
    ORTHCH:  cpu time      0.3522: real time      0.0088
       DOS:  cpu time      0.0112: real time      0.0003
    CHARGE:  cpu time      1.0887: real time      0.0272
    MIXING:  cpu time      0.0621: real time      0.0016
    --------------------------------------------
      LOOP:  cpu time     11.8152: real time      0.2955

 eigenvalue-minimisations  :   343
 total energy-change (2. order) :-0.1571199E-02  (-0.2105505E-02)
 number of electron     256.0000429 magnetization 
 augmentation part      -15.3679519 magnetization 

 Broyden mixing:
  rms(total) = 0.25090E-01    rms(broyden)= 0.25088E-01
  rms(prec ) = 0.28025E-01
  weight for this iteration     100.00

 eigenvalues of (default mixing * dielectric matrix)
  average eigenvalue GAMMA=   1.6327
  2.5033  2.5033  1.4154  0.8707  0.8707

 Free energy of the ion-electron system (eV)
  ---------------------------------------------------
  alpha Z        PSCENC =       105.38177171
  Ewald energy   TEWEN  =     -7126.69769741
  -Hartree energ DENC   =      -610.85049916
  -exchange      EXHF   =         0.00000000
  -V(xc)+E(xc)   XCENC  =      -586.84985309
  PAW double counting   =     32164.59228795   -31042.71890374
  entropy T*S    EENTRO =        -0.18553995
  eigenvalues    EBANDS =       200.26256575
  atomic energy  EATOM  =      6595.45443641
  Solvation  Ediel_sol  =         0.00000000
  ---------------------------------------------------
  free energy    TOTEN  =      -301.61143154 eV

  energy without entropy =     -301.42589159  energy(sigma->0) =     -301.51866156


--------------------------------------------------------------------------------------------------------




--------------------------------------- Iteration      1(  18)  ---------------------------------------


    POTLOK:  cpu time      0.3666: real time      0.0091
    SETDIJ:  cpu time      0.0616: real time      0.0015
    EDDIAG:  cpu time      3.1999: real time      0.0800
  RMM-DIIS:  cpu time      6.9079: real time      0.1727
    ORTHCH:  cpu time      0.3529: real time      0.0088
       DOS:  cpu time      0.0121: real time      0.0003
    CHARGE:  cpu time      1.0774: real time      0.0269
    MIXING:  cpu time      0.0626: real time      0.0016
    --------------------------------------------
      LOOP:  cpu time     12.0419: real time      0.3011

 eigenvalue-minimisations  :   352
 total energy-change (2. order) :-0.1063802E-02  (-0.4196205E-03)
 number of electron     256.0000429 magnetization 
 augmentation part      -15.3694168 magnetization 

 Broyden mixing:
  rms(total) = 0.10638E-01    rms(broyden)= 0.10638E-01
  rms(prec ) = 0.12297E-01
  weight for this iteration     100.00

 eigenvalues of (default mixing * dielectric matrix)
  average eigenvalue GAMMA=   1.6160
  2.6103  2.6103  1.6520  1.0903  0.8665  0.8665

 Free energy of the ion-electron system (eV)
  ---------------------------------------------------
  alpha Z        PSCENC =       105.38177171
  Ewald energy   TEWEN  =     -7126.69769741
  -Hartree energ DENC   =      -611.07026392
  -exchange      EXHF   =         0.00000000
  -V(xc)+E(xc)   XCENC  =      -586.79095901
  PAW double counting   =     32050.59022479   -30928.71109409
  entropy T*S    EENTRO =        -0.18543516
  eigenvalues    EBANDS =       200.41652134
  atomic energy  EATOM  =      6595.45443641
  Solvation  Ediel_sol  =         0.00000000
  ---------------------------------------------------
  free energy    TOTEN  =      -301.61249534 eV

  energy without entropy =     -301.42706018  energy(sigma->0) =     -301.51977776


--------------------------------------------------------------------------------------------------------




--------------------------------------- Iteration      1(  19)  ---------------------------------------


    POTLOK:  cpu time      0.3776: real time      0.0094
    SETDIJ:  cpu time      0.0618: real time      0.0015
    EDDIAG:  cpu time      3.2302: real time      0.0808
  RMM-DIIS:  cpu time      6.6500: real time      0.1663
    ORTHCH:  cpu time      0.3536: real time      0.0088
       DOS:  cpu time      0.0150: real time      0.0004
    CHARGE:  cpu time      1.0940: real time      0.0273
    MIXING:  cpu time      0.0757: real time      0.0019
    --------------------------------------------
      LOOP:  cpu time     11.8551: real time      0.2965

 eigenvalue-minimisations  :   339
 total energy-change (2. order) :-0.2141641E-03  (-0.1127055E-03)
 number of electron     256.0000429 magnetization 
 augmentation part      -15.3697539 magnetization 

 Broyden mixing:
  rms(total) = 0.39695E-02    rms(broyden)= 0.39692E-02
  rms(prec ) = 0.46358E-02
  weight for this iteration     100.00

 eigenvalues of (default mixing * dielectric matrix)
  average eigenvalue GAMMA=   1.6161
  3.0044  2.5122  1.7733  1.3990  0.9200  0.9200  0.7835

 Free energy of the ion-electron system (eV)
  ---------------------------------------------------
  alpha Z        PSCENC =       105.38177171
  Ewald energy   TEWEN  =     -7126.69769741
  -Hartree energ DENC   =      -611.37338983
  -exchange      EXHF   =         0.00000000
  -V(xc)+E(xc)   XCENC  =      -586.75066139
  PAW double counting   =     32008.17571348   -30886.30148716
  entropy T*S    EENTRO =        -0.18560889
  eigenvalues    EBANDS =       200.68421360
  atomic energy  EATOM  =      6595.45443641
  Solvation  Ediel_sol  =         0.00000000
  ---------------------------------------------------
  free energy    TOTEN  =      -301.61270950 eV

  energy without entropy =     -301.42710061  energy(sigma->0) =     -301.51990506


--------------------------------------------------------------------------------------------------------




--------------------------------------- Iteration      1(  20)  ---------------------------------------


    POTLOK:  cpu time      0.3657: real time      0.0091
    SETDIJ:  cpu time      0.0642: real time      0.0016
    EDDIAG:  cpu time      3.3437: real time      0.0837
  RMM-DIIS:  cpu time      4.8061: real time      0.1202
    ORTHCH:  cpu time      0.3517: real time      0.0088
       DOS:  cpu time      0.0135: real time      0.0003
    --------------------------------------------
      LOOP:  cpu time      8.9448: real time      0.2238

 eigenvalue-minimisations  :   217
 total energy-change (2. order) :-0.3610059E-04  (-0.2724243E-04)
 number of electron     256.0000429 magnetization 
 augmentation part      -15.3697539 magnetization 

 Free energy of the ion-electron system (eV)
  ---------------------------------------------------
  alpha Z        PSCENC =       105.38177171
  Ewald energy   TEWEN  =     -7126.69769741
  -Hartree energ DENC   =      -611.47669385
  -exchange      EXHF   =         0.00000000
  -V(xc)+E(xc)   XCENC  =      -586.73884784
  PAW double counting   =     31987.96529973   -30866.09309874
  entropy T*S    EENTRO =        -0.18558821
  eigenvalues    EBANDS =       200.77767261
  atomic energy  EATOM  =      6595.45443641
  Solvation  Ediel_sol  =         0.00000000
  ---------------------------------------------------
  free energy    TOTEN  =      -301.61274560 eV

  energy without entropy =     -301.42715740  energy(sigma->0) =     -301.51995150


--------------------------------------------------------------------------------------------------------




 average (electrostatic) potential at core
  the test charge radii are     0.9892
  (the norm of the test charge is              1.0000)
       1 -83.8938       2 -83.7759       3 -83.7358       4 -83.9643       5 -83.8590
       6 -83.6954       7 -83.8598       8 -83.8000       9 -83.6628      10 -83.8560
      11 -83.8174      12 -83.5564      13 -83.9687      14 -83.8418      15 -83.7632
      16 -83.7216      17 -83.7974      18 -84.0300      19 -84.0109      20 -83.6738
      21 -83.8539      22 -83.8329      23 -83.8307      24 -84.1578      25 -83.5215
      26 -83.9153      27 -83.5800      28 -83.9230      29 -84.1118      30 -83.8672
      31 -84.0268      32 -84.1098      33 -83.8239      34 -83.7067      35 -83.9896
      36 -84.0598      37 -83.7891      38 -83.5506      39 -83.7431      40 -83.5210
      41 -83.8117      42 -83.9301      43 -84.0759      44 -83.6939      45 -84.1271
      46 -83.7738      47 -83.7226      48 -83.7876      49 -83.7496      50 -83.8526
      51 -83.9889      52 -83.5437      53 -83.9417      54 -83.8157      55 -83.6999
      56 -83.8367      57 -83.9098      58 -83.9519      59 -83.8006      60 -83.7846
      61 -84.0203      62 -83.9882      63 -83.4708      64 -83.6939
 
 
 
 E-fermi :   5.7943     XC(G=0):  -9.4661     alpha+bet :-11.7317

 val. band max:        5.7566776848   @ k =   0.0000   0.0000   0.0000
 cond. band min:       5.8030326378   @ k =   0.0000   0.0000   0.0000
 fundamental gap:      0.0463549531
 Fermi energy:         5.7943032578

 k-point     1 :       0.0000    0.0000    0.0000
  band No.  band energies     occupation 
      1      -6.6799      2.00000
      2      -6.1693      2.00000
      3      -6.0207      2.00000
      4      -5.6456      2.00000
      5      -5.4796      2.00000
      6      -5.4107      2.00000
      7      -5.3435      2.00000
      8      -5.1934      2.00000
      9      -4.8986      2.00000
     10      -4.7118      2.00000
     11      -4.6175      2.00000
     12      -4.4884      2.00000
     13      -4.3708      2.00000
     14      -4.2274      2.00000
     15      -4.0787      2.00000
     16      -4.0135      2.00000
     17      -3.8065      2.00000
     18      -3.6633      2.00000
     19      -3.6219      2.00000
     20      -3.5609      2.00000
     21      -3.4514      2.00000
     22      -3.3553      2.00000
     23      -3.1899      2.00000
     24      -2.8414      2.00000
     25      -2.7029      2.00000
     26      -2.4660      2.00000
     27      -2.3933      2.00000
     28      -2.3084      2.00000
     29      -2.2069      2.00000
     30      -2.0741      2.00000
     31      -2.0000      2.00000
     32      -1.9277      2.00000
     33      -1.8136      2.00000
     34      -1.7155      2.00000
     35      -1.6330      2.00000
     36      -1.4909      2.00000
     37      -1.4162      2.00000
     38      -1.3053      2.00000
     39      -1.2740      2.00000
     40      -1.2407      2.00000
     41      -1.0578      2.00000
     42      -1.0127      2.00000
     43      -0.9527      2.00000
     44      -0.8411      2.00000
     45      -0.7057      2.00000
     46      -0.6138      2.00000
     47      -0.4685      2.00000
     48      -0.3959      2.00000
     49      -0.3267      2.00000
     50      -0.1537      2.00000
     51      -0.0239      2.00000
     52       0.1479      2.00000
     53       0.2511      2.00000
     54       0.3064      2.00000
     55       0.4732      2.00000
     56       0.4996      2.00000
     57       0.6199      2.00000
     58       0.6804      2.00000
     59       0.7841      2.00000
     60       0.9634      2.00000
     61       1.0544      2.00000
     62       1.2290      2.00000
     63       1.3436      2.00000
     64       1.4137      2.00000
     65       1.5399      2.00000
     66       1.5568      2.00000
     67       1.7136      2.00000
     68       1.7851      2.00000
     69       1.8101      2.00000
     70       1.8601      2.00000
     71       1.8927      2.00000
     72       1.9532      2.00000
     73       2.0987      2.00000
     74       2.1291      2.00000
     75       2.2063      2.00000
     76       2.2490      2.00000
     77       2.2981      2.00000
     78       2.3724      2.00000
     79       2.4877      2.00000
     80       2.6196      2.00000
     81       2.6507      2.00000
     82       2.7750      2.00000
     83       2.7999      2.00000
     84       2.9290      2.00000
     85       2.9576      2.00000
     86       3.0465      2.00000
     87       3.0732      2.00000
     88       3.1015      2.00000
     89       3.2665      2.00000
     90       3.3043      2.00000
     91       3.3995      2.00000
     92       3.5206      2.00000
     93       3.5678      2.00000
     94       3.6442      2.00000
     95       3.6636      2.00000
     96       3.7045      2.00000
     97       3.7643      2.00000
     98       3.8551      2.00000
     99       3.9486      2.00000
    100       4.0006      2.00000
    101       4.0746      2.00000
    102       4.1214      2.00000
    103       4.1869      2.00000
    104       4.2254      2.00000
    105       4.2891      2.00000
    106       4.3567      2.00000
    107       4.3643      2.00000
    108       4.5150      2.00000
    109       4.5417      2.00000
    110       4.5650      2.00000
    111       4.6012      2.00000
    112       4.7213      2.00000
    113       4.7620      2.00000
    114       4.8372      2.00000
    115       4.8860      2.00000
    116       4.9502      2.00000
    117       5.0095      2.00000
    118       5.0764      2.00000
    119       5.1264      2.00000
    120       5.1724      2.00000
    121       5.2566      2.00000
    122       5.2820      2.00000
    123       5.3659      2.00000
    124       5.3755      2.00000
    125       5.5732      1.99823
    126       5.6606      1.94133
    127       5.7433      1.52916
    128       5.7567      1.40535
    129       5.8030      0.90175
    130       5.8806      0.22219
    131       6.0130      0.00198
    132       6.1258      0.00000
    133       6.1777      0.00000
    134       6.2113      0.00000
    135       6.2874      0.00000
    136       6.3161      0.00000
    137       6.4100      0.00000
    138       6.4534      0.00000
    139       6.4960      0.00000
    140       6.6000      0.00000
    141       6.6490      0.00000
    142       6.7247      0.00000
    143       6.7768      0.00000
    144       6.8890      0.00000
    145       6.9298      0.00000
    146       7.0252      0.00000
    147       7.1055      0.00000
    148       7.1647      0.00000
    149       7.3024      0.00000
    150       7.3459      0.00000
    151       7.4230      0.00000
    152       7.5153      0.00000
    153       7.5500      0.00000
    154       7.5904      0.00000
    155       7.6731      0.00000
    156       7.7493      0.00000
    157       7.8634      0.00000
    158       7.9080      0.00000
    159       8.0657      0.00000
    160       8.2498      0.00000
    161       8.3253      0.00000
    162       8.5066      0.00000
    163       8.5864      0.00000
    164       9.3361      0.00000


--------------------------------------------------------------------------------------------------------


 soft charge-density along one line, spin component           1
         0         1         2         3         4         5         6         7         8         9
 total charge-density along one line
 
 pseudopotential strength for first ion, spin component:           1
 18.478  25.780   0.000   0.002   0.001   0.000   0.004   0.001
 25.780  35.973   0.000   0.003   0.001   0.000   0.006   0.002
  0.000   0.000   4.184   0.000  -0.000   7.798  -0.000  -0.001
  0.002   0.003   0.000   4.185   0.001  -0.000   7.798   0.001
  0.001   0.001  -0.000   0.001   4.184  -0.001   0.001   7.797
  0.000   0.000   7.798  -0.000  -0.001  14.543  -0.000  -0.001
  0.004   0.006  -0.000   7.798   0.001  -0.000  14.544   0.002
  0.001   0.002  -0.001   0.001   7.797  -0.001   0.002  14.541
 total augmentation occupancy for first ion, spin component:           1
  6.507  -2.632   0.317  -0.075  -1.027  -0.096   0.016   0.356
 -2.632   1.257  -0.199   0.006   0.558   0.050   0.006  -0.178
  0.317  -0.199   3.498   0.787   0.020  -0.933  -0.235  -0.002
 -0.075   0.006   0.787   3.654   0.322  -0.235  -0.987  -0.104
 -1.027   0.558   0.020   0.322   3.360  -0.001  -0.103  -0.871
 -0.096   0.050  -0.933  -0.235  -0.001   0.258   0.070  -0.001
  0.016   0.006  -0.235  -0.987  -0.103   0.070   0.276   0.033
  0.356  -0.178  -0.002  -0.104  -0.871  -0.001   0.033   0.235


------------------------ aborting loop because EDIFF is reached ----------------------------------------


    CHARGE:  cpu time      1.0867: real time      0.0272
    FORLOC:  cpu time      0.0344: real time      0.0010
    FORNL :  cpu time      3.9431: real time      0.0986
    STRESS:  cpu time     11.7594: real time      0.2940
    FORCOR:  cpu time      0.3134: real time      0.0078
    FORHAR:  cpu time      0.1496: real time      0.0038
    MIXING:  cpu time      0.0849: real time      0.0022
    OFIELD:  cpu time      0.0036: real time      0.0000

  FORCE on cell =-STRESS in cart. coord.  units (eV):
  Direction    XX          YY          ZZ          XY          YZ          ZX
  --------------------------------------------------------------------------------------
  Alpha Z   105.38177   105.38177   105.38177
  Ewald   -2507.31767 -2264.73896 -2354.68478    27.81590    59.09557     2.33792
  Hartree   136.61231   251.69041   223.21276   -21.16260    -7.71905    -7.51836
  E(xc)    -794.94120  -795.25242  -794.63594    -0.60120    -1.19812     0.35202
  Local    -813.99129 -1176.58379 -1043.32929    -6.21780   -51.47761    11.31953
  n-local  2497.78754  2513.12448  2497.33015    14.30828    23.02393    -3.14695
  augment  -390.56733  -391.85299  -390.82525    -0.99974    -1.81748     0.70606
  Kinetic  1747.49561  1746.78667  1760.62881    -5.17419    -3.41934    -4.50586
  Fock        0.00000     0.00000     0.00000     0.00000     0.00000     0.00000
  -------------------------------------------------------------------------------------
  Total     -19.54026   -11.44483     3.07824     7.96865    16.48791    -0.45563
  in kB     -23.92721   -14.01429     3.76933     9.75767    20.18958    -0.55792
  external pressure =      -11.39 kB  Pullay stress =        0.00 kB

  kinetic pressure (ideal gas correction) =     14.69 kB
  total pressure  =      3.30 kB
  Total+kin.    -9.369       3.768      15.505       8.482      19.298      -0.598

 VOLUME and BASIS-vectors are now :
 -----------------------------------------------------------------------------
  energy-cutoff  :      184.01
  volume of cell :     1308.43
      direct lattice vectors                 reciprocal lattice vectors
[...]
    FORCOR:  cpu time      0.2959: real time      0.0074
    FORHAR:  cpu time      0.1453: real time      0.0036
    MIXING:  cpu time      0.0456: real time      0.0012
    OFIELD:  cpu time      0.0033: real time      0.0000

  FORCE on cell =-STRESS in cart. coord.  units (eV):
  Direction    XX          YY          ZZ          XY          YZ          ZX
  --------------------------------------------------------------------------------------
  Alpha Z   105.38177   105.38177   105.38177
  Ewald   -2401.80197 -2402.07170 -2327.47558   145.37778    12.32447    94.21664
  Hartree   208.73775   175.54511   230.34224    79.07908    -9.84366    39.84192
  E(xc)    -791.53576  -791.88510  -791.53447     0.71971    -0.36242    -0.37967
  Local    -982.55902  -952.86521 -1075.11963  -214.97102    -2.81933  -137.35541
  n-local  2497.11646  2507.02975  2502.33258    -6.28045     7.62834    10.37429
  augment  -395.30517  -396.52763  -395.36588     0.56182    -0.52959    -0.87262
  Kinetic  1738.77154  1745.97646  1728.14626    -0.68865    -1.66756    -3.12072
  Fock        0.00000     0.00000     0.00000     0.00000     0.00000     0.00000
  -------------------------------------------------------------------------------------
  Total     -21.19439    -9.41655   -23.29271     3.79826     4.73025     2.70444
  in kB     -25.95270   -11.53064   -28.52211     4.65100     5.79223     3.31160
  external pressure =      -22.00 kB  Pullay stress =        0.00 kB

  kinetic pressure (ideal gas correction) =     13.37 kB
  total pressure  =     -8.63 kB
  Total+kin.    -8.089      -0.941     -16.852       1.479       7.367       3.473

 VOLUME and BASIS-vectors are now :
 -----------------------------------------------------------------------------
  energy-cutoff  :      184.01
  volume of cell :     1308.43
      direct lattice vectors                 reciprocal lattice vectors
    10.937456000  0.000000000  0.000000000     0.091428939  0.000000000  0.000000000
     0.000000000 10.937456000  0.000000000     0.000000000  0.091428939  0.000000000
     0.000000000  0.000000000 10.937456000     0.000000000  0.000000000  0.091428939

  length of vectors
    10.937456000 10.937456000 10.937456000     0.091428939  0.091428939  0.091428939


 FORCES acting on ions
    electron-ion (+dipol)            ewald-force                    non-local-force                 convergence-correction
 -----------------------------------------------------------------------------------------------
   0.179E+02 0.167E+02 -.110E+02   -.172E+02 -.171E+02 0.105E+02   -.161E+01 -.689E+00 0.835E+00   -.483E-02 -.300E-02 0.506E-02
   -.387E+00 -.914E+01 -.484E-01   0.338E+00 0.101E+02 0.207E+00   0.461E+00 -.125E+01 0.437E+00   -.598E-02 0.239E-02 -.897E-02
   -.251E+02 0.225E+01 -.590E+01   0.246E+02 -.152E+01 0.559E+01   0.105E+01 -.134E+01 -.430E+00   -.492E-02 0.118E-02 0.629E-02
   -.283E+02 0.241E+02 0.108E+02   0.272E+02 -.233E+02 -.110E+02   0.236E+01 -.216E+01 -.641E+00   -.372E-03 -.286E-03 -.315E-02
   0.774E+01 0.554E+01 0.230E+02   -.814E+01 -.644E+01 -.232E+02   0.311E+00 0.872E+00 0.633E+00   -.245E-02 -.276E-02 0.437E-02
   0.125E+02 -.359E+01 -.101E+02   -.118E+02 0.186E+01 0.108E+02   -.252E+01 0.216E+01 -.369E+00   0.661E-02 0.488E-02 -.379E-02
   -.125E+02 -.322E+02 0.225E+02   0.115E+02 0.322E+02 -.218E+02   0.302E+01 0.207E+01 0.544E+00   0.258E-03 0.133E-02 0.208E-02
   0.240E+02 -.144E+02 -.211E+02   -.251E+02 0.137E+02 0.211E+02   0.123E+01 0.221E+01 -.465E-01   0.155E-02 -.866E-04 -.518E-02
   0.139E+02 -.313E+02 -.112E+02   -.129E+02 0.299E+02 0.122E+02   -.146E+01 0.226E+01 -.105E+01   0.566E-03 0.508E-03 0.131E-02
   0.787E+01 -.156E+02 -.171E+01   -.776E+01 0.170E+02 0.783E+00   0.418E-01 -.873E+00 0.227E+01   0.181E-02 0.462E-02 0.648E-03
   -.138E+02 0.334E+02 0.263E+01   0.128E+02 -.330E+02 -.426E+01   0.127E+01 -.357E+00 0.217E+01   0.285E-02 -.207E-02 -.997E-03
   -.156E+02 0.181E+02 -.296E+01   0.156E+02 -.155E+02 0.404E+01   -.546E+00 -.315E+01 -.117E+01   -.696E-02 -.604E-04 -.267E-02
   0.767E+01 0.112E+02 -.112E+02   -.682E+01 -.105E+02 0.107E+02   -.109E+01 -.154E+01 0.362E+00   -.277E-02 0.307E-02 -.201E-02
   -.127E+02 0.432E+02 -.251E+01   0.129E+02 -.410E+02 0.225E+01   -.838E-01 -.358E+01 0.401E+00   0.582E-03 -.998E-03 -.428E-02
   0.154E+02 -.151E+02 -.336E+02   -.163E+02 0.144E+02 0.343E+02   0.741E+00 0.383E+00 -.296E+00   -.279E-02 -.165E-02 0.347E-02
   -.348E+01 -.278E+02 0.374E+01   0.264E+01 0.259E+02 -.220E+01   0.730E+00 0.177E+01 -.402E+01   0.439E-02 0.458E-02 0.406E-03
   0.205E+02 -.201E+01 0.368E+01   -.196E+02 0.151E+01 -.470E+01   -.151E+01 0.931E+00 0.160E+01   -.216E-02 -.289E-03 0.451E-03
   0.647E+01 -.296E+02 -.180E+02   -.612E+01 0.298E+02 0.185E+02   -.637E+00 -.155E+00 0.371E+00   -.196E-02 0.175E-03 0.523E-02
   -.117E+02 0.386E+02 0.132E+02   0.113E+02 -.366E+02 -.133E+02   -.889E-01 -.337E+01 0.299E+00   0.192E-02 -.267E-02 -.193E-02
   -.131E+02 -.673E+01 -.104E+02   0.128E+02 0.491E+01 0.790E+01   -.576E-01 0.230E+01 0.252E+01   -.699E-02 0.548E-03 0.417E-02
   -.391E+02 0.103E+02 -.175E+02   0.385E+02 -.969E+01 0.149E+02   0.100E+01 -.167E+01 0.350E+01   -.113E-02 0.180E-02 -.190E-02
   -.172E+02 0.874E+01 0.478E+01   0.159E+02 -.914E+01 -.604E+01   0.186E+01 0.104E+01 0.143E+01   0.819E-02 0.159E-02 -.464E-02
   -.108E+02 -.333E+02 -.165E+02   0.107E+02 0.317E+02 0.151E+02   0.125E+01 0.393E+01 0.139E+01   0.172E-02 -.365E-02 -.188E-02
   -.113E+02 0.244E+01 0.158E+02   0.123E+02 -.243E+01 -.155E+02   0.485E+00 0.111E+01 0.828E+00   0.490E-02 0.120E-02 0.839E-03
   0.111E+02 0.120E+02 -.177E+02   -.125E+02 -.107E+02 0.181E+02   0.150E+01 -.231E+01 -.875E+00   0.539E-02 -.542E-03 0.339E-02
   0.150E+02 -.294E+02 0.350E+02   -.152E+02 0.312E+02 -.358E+02   0.134E+01 -.146E+01 0.142E+00   -.129E-02 0.260E-02 -.493E-02
   -.885E+01 0.160E+02 -.174E+02   0.724E+01 -.150E+02 0.166E+02   0.273E+01 -.313E+01 0.154E+01   0.377E-03 -.120E-02 0.668E-02
   -.283E+02 -.221E+02 -.139E+02   0.287E+02 0.189E+02 0.130E+02   -.139E+01 0.456E+01 0.162E+01   0.422E-02 -.200E-02 -.517E-02
   -.379E+01 0.140E+02 -.148E+02   0.551E+01 -.128E+02 0.128E+02   -.214E+01 -.134E+01 0.270E+01   -.124E-02 -.157E-02 0.473E-02
   -.336E+01 0.361E+02 -.170E+02   0.185E+01 -.337E+02 0.159E+02   0.146E+01 -.342E+01 0.953E+00   -.169E-02 0.190E-02 -.804E-02
   0.737E+01 -.185E+02 0.462E+02   -.589E+01 0.192E+02 -.440E+02   -.301E+01 -.139E+01 -.335E+01   0.339E-03 0.104E-02 0.453E-02
   0.381E+02 -.283E+02 -.264E+02   -.374E+02 0.286E+02 0.252E+02   -.216E+01 0.110E+00 0.100E+01   -.286E-02 -.571E-02 -.420E-02
   0.321E+02 -.155E+02 -.385E+01   -.328E+02 0.146E+02 0.453E+01   0.382E+00 0.205E+01 -.374E+00   -.199E-02 -.135E-02 -.271E-02
   0.121E+02 -.329E+01 -.967E+00   -.963E+01 0.477E+01 0.225E+01   -.250E+01 -.293E+01 -.300E+01   -.472E-02 0.529E-02 0.363E-02
   -.102E+02 -.867E+01 0.348E+01   0.831E+01 0.103E+02 -.394E+01   0.219E+01 -.224E+01 -.983E-01   -.294E-02 0.195E-02 -.239E-02
   -.186E+02 0.118E+02 -.132E+02   0.193E+02 -.123E+02 0.133E+02   -.121E+01 0.129E+01 -.868E+00   -.332E-02 -.263E-02 0.699E-02
   -.447E+02 0.571E+02 0.252E+02   0.450E+02 -.568E+02 -.243E+02   0.807E-01 -.452E+00 -.316E+01   0.850E-03 -.273E-02 -.106E-02
   -.789E+01 0.257E+02 -.145E+02   0.940E+01 -.237E+02 0.150E+02   -.134E+01 -.270E+01 -.120E+01   -.292E-02 0.189E-02 0.507E-03
   0.117E+02 -.238E+02 -.905E+00   -.111E+02 0.239E+02 -.211E-01   -.125E+01 -.620E+00 0.105E+01   0.471E-02 0.341E-02 -.464E-02
   0.481E+02 -.926E+01 -.131E+02   -.473E+02 0.710E+01 0.149E+02   -.132E+01 0.366E+01 -.194E+01   0.707E-02 -.179E-02 0.533E-02
   -.462E-01 0.271E+01 -.415E+02   -.166E+01 -.211E+01 0.396E+02   0.210E+01 -.744E+00 0.417E+01   -.114E-01 -.329E-02 0.981E-03
   -.258E+01 0.785E+01 0.892E+01   0.392E+01 -.865E+01 -.981E+01   -.906E+00 0.106E+01 0.157E+01   -.190E-02 0.341E-02 -.722E-02
   0.127E+01 0.132E+02 0.431E+01   -.231E+01 -.120E+02 -.400E+01   0.135E+01 -.961E+00 0.122E+01   -.250E-02 -.103E-02 0.862E-02
   0.132E+02 -.732E+01 0.126E+02   -.123E+02 0.724E+01 -.128E+02   -.109E+01 -.441E+00 -.493E+00   -.266E-02 -.805E-03 -.687E-02
   0.378E+01 -.951E+00 -.123E+02   -.397E+01 0.306E+00 0.114E+02   -.185E+00 0.441E+00 0.190E+01   0.832E-02 -.205E-02 0.541E-02
   0.560E+01 -.237E+02 0.107E+02   -.596E+01 0.236E+02 -.104E+02   0.306E+00 0.347E+00 -.686E+00   0.296E-02 0.457E-02 -.601E-02
   0.429E+02 -.171E+02 -.936E+01   -.441E+02 0.173E+02 0.839E+01   0.204E+01 0.543E-01 0.909E+00   0.521E-02 -.563E-02 0.322E-02
   -.107E+02 0.303E+02 -.383E+02   0.112E+02 -.287E+02 0.347E+02   -.341E+00 -.337E+01 0.688E+01   0.140E-02 -.292E-02 -.984E-03
   0.199E+02 0.215E+02 0.164E+02   -.203E+02 -.230E+02 -.162E+02   0.883E+00 0.123E+01 -.105E+00   -.453E-02 -.579E-03 0.119E-01
   -.166E+02 0.620E+01 0.299E+02   0.181E+02 -.780E+01 -.292E+02   -.246E+01 0.251E+01 -.195E+01   -.260E-02 0.343E-02 -.104E-01
   0.137E+02 -.673E+00 0.127E+02   -.138E+02 -.214E+00 -.117E+02   -.387E+00 0.194E+01 -.170E+01   -.410E-02 0.136E-02 0.637E-02
   -.228E+02 -.345E+02 -.136E+02   0.210E+02 0.346E+02 0.117E+02   0.261E+01 0.145E+01 0.290E+01   -.179E-02 -.345E-02 -.642E-02
   -.262E+02 -.150E+02 0.133E+01   0.254E+02 0.138E+02 -.172E+01   0.144E+01 0.135E+01 0.809E+00   0.724E-02 0.123E-02 0.901E-02
   0.242E+02 -.255E+02 0.347E+02   -.219E+02 0.243E+02 -.334E+02   -.394E+01 0.186E+01 -.168E+01   0.359E-02 0.240E-02 -.267E-02
   0.100E+02 -.760E+01 0.116E+01   -.725E+01 0.663E+01 -.154E-01   -.324E+01 0.179E+01 -.126E+01   0.378E-02 -.103E-03 -.182E-02
   -.871E+01 0.117E+02 0.507E+01   0.954E+01 -.107E+02 -.575E+01   -.118E+01 -.100E+01 0.609E+00   0.186E-03 -.181E-02 0.162E-02
   0.251E+02 0.143E+02 -.636E+01   -.251E+02 -.134E+02 0.705E+01   0.188E+00 -.117E+01 -.214E+01   -.161E-02 -.564E-03 0.289E-02
   0.389E+01 0.146E+02 0.865E+01   -.206E+01 -.127E+02 -.553E+01   -.238E+01 -.197E+01 -.549E+01   -.584E-02 0.289E-02 -.353E-02
   -.118E+02 -.713E+01 0.227E+02   0.117E+02 0.677E+01 -.210E+02   0.290E+00 0.530E+00 -.232E+01   -.593E-04 0.212E-02 -.680E-03
   -.190E+02 0.983E+00 0.194E+02   0.201E+02 -.105E+01 -.187E+02   -.113E+01 -.193E+00 0.143E+00   -.508E-02 -.239E-02 -.274E-02
   -.218E+02 0.730E+01 0.300E+02   0.214E+02 -.766E+01 -.293E+02   0.286E+00 0.899E+00 -.138E+01   -.249E-02 0.504E-03 0.553E-02
   -.170E+02 0.114E+02 -.240E+02   0.149E+02 -.113E+02 0.215E+02   0.418E+01 -.781E+00 0.280E+01   0.652E-02 0.424E-02 -.103E-02
   -.627E+01 -.230E+02 0.274E+02   0.621E+01 0.230E+02 -.255E+02   -.365E+00 0.404E-01 -.274E+01   0.301E-02 -.969E-03 -.227E-02
   0.345E+02 0.192E+02 0.978E+01   -.337E+02 -.187E+02 -.984E+01   -.115E+01 -.193E+01 -.222E+00   0.336E-02 -.204E-02 0.238E-02
 -----------------------------------------------------------------------------------------------
   0.357E+01 0.656E+01 -.741E+01   0.426E-13 0.000E+00 -.249E-13   -.353E+01 -.648E+01 0.741E+01   -.896E-02 0.744E-02 0.884E-03
 
 
 POSITION                                       TOTAL-FORCE (eV/Angst)
 -----------------------------------------------------------------------------------
      0.91291      4.07892      1.78963        -0.927277     -1.090584      0.284280
      3.13391      3.14701      7.40975         0.405550     -0.268994      0.587135
      1.27715      9.89868      0.42012         0.594388     -0.610398     -0.733763
      0.88229      9.46257      6.76548         1.306227     -1.401033     -0.786447
      6.33918      6.03255      2.60454        -0.090205     -0.035918      0.405201
      6.93663      4.01355      7.75499        -1.799387      0.437724      0.236863
      6.81476      8.66180      1.75639         1.935513      2.075427      1.228795
      6.61522      9.03806      5.87181         0.170905      1.593343      0.013568
      0.13323      0.52398      1.73022        -0.421895      0.867350     -0.031693
     10.48343      0.10538      7.63789         0.154526      0.508290      1.338426
     10.62341      5.91957      2.71254         0.234031      0.039638      0.534938
      1.51676      5.55621      8.76144        -0.573251     -0.533782     -0.095934
      5.73261     10.38580      3.47836        -0.245735     -0.825473     -0.142591
      5.54829     10.59103      7.81751         0.163458     -1.431461      0.138841
      4.01492      7.34786      3.15772        -0.089268     -0.342839      0.433122
      5.42477      5.15689      9.42830        -0.102327     -0.064335     -2.478579
      1.86119      1.85474      3.04124        -0.628400      0.431456      0.577528
      0.31803      0.93595      9.89602        -0.288199      0.040464      0.816543
      0.79043      5.65854      5.27316        -0.471770     -1.452971      0.199470
      2.03728      7.48539      9.95060        -0.411680      0.491424      0.068928
      6.98459      1.40047      3.90591         0.412487     -1.065121      0.873477
      7.06110      1.32869      8.45383         0.611765      0.641898      0.161744
      9.00178      7.29557      4.99834         1.173574      2.397287     -0.044351
      6.72324      5.79302      0.18418         1.548802      1.125774      1.131965
      9.89868      3.00390      0.54000         0.083419     -0.970451     -0.458388
      0.89152      2.25883      5.75863         1.154029      0.334747     -0.693672
     10.49992      8.60989      9.81371         1.120077     -2.088188      0.738946
      0.53418      7.80775      4.82546        -0.976531      1.379079      0.665027
      5.30736      1.50278     10.05196        -0.421871     -0.116717      0.718631
      5.92615      3.57897      5.65267        -0.054192     -0.984762     -0.167182
      4.91884      7.98777      0.94068        -1.534840     -0.673097     -1.183209
      6.46955      6.79593      5.22251        -1.518712      0.395946     -0.186009
      4.60178      5.09638      4.39890        -0.298200      1.099768      0.310946
      3.90120      3.53270      9.93929        -0.061678     -1.442083     -1.712955
      3.09652      9.68797      3.12911         0.280818     -0.580435     -0.565600
      4.21381      9.75847      9.99083        -0.559179      0.724448     -0.735598
      8.20152      4.67294      3.86514         0.407088     -0.070156     -2.227140
     10.31505      4.99560      9.85144         0.165459     -0.651588     -0.647063
      9.99512     10.01398      3.28128        -0.562971     -0.547882      0.117137
      8.92127     10.18952      9.54836        -0.546364      1.494216     -0.144019
      2.76230      1.19371      9.49376         0.381853     -0.149992      2.248014
      2.07317      0.04787      4.84528         0.441664      0.265567      0.676318
      3.05679      4.04492      1.01637         0.309081      0.178255      1.542665
      2.86161      5.16486      6.28727        -0.148666     -0.528986     -0.684892
      8.24549     10.69439      0.81730        -0.364630     -0.206275      0.912126
      8.59033     10.65957      5.31995        -0.051224      0.240323     -0.364536
      8.51700      6.73023      8.78494         0.864033      0.252827     -0.058658
      8.20670      5.45039      5.90733         0.167165     -1.785014      3.302545
      4.91631      1.24250      1.85722         0.461981     -0.211228      0.048348
      4.40740      0.92190      6.30017        -0.983633      0.920753     -1.222804
      2.98382      6.38365      1.21518        -0.449837      1.050485     -0.693760
      4.34793      6.43031      7.39523         0.824106      1.579999      1.025510
      7.17411      1.98310      0.72134         0.670586      0.173833      0.426719
      9.75575      1.96992      6.70172        -1.669538      0.704107     -0.367736
      9.54809      6.55549      0.45301        -0.465672      0.818858     -0.110666
     10.38745      5.62050      7.36251        -0.338470     -0.053730     -0.065665
      3.90759      3.13205      3.30882         0.182631     -0.255172     -1.445807
      2.19851      0.92891      7.42573        -0.560383     -0.092295     -2.376479
      0.95957      8.14191      2.58264         0.254375      0.174285     -0.663406
      3.13207      8.60459      7.93063         0.028231     -0.260308      0.811173
      6.37250      3.34550      2.93022        -0.076058      0.541723     -0.696109
      8.85952      3.30423      8.54309         2.041214     -0.743557      0.278544
      8.52884      7.29612      2.75394        -0.419166      0.075407     -0.797848
      9.34615      8.98635      7.49753        -0.399288     -1.428475     -0.277065
 -----------------------------------------------------------------------------------
    total drift:                                0.038536      0.091402     -0.006150


--------------------------------------------------------------------------------------------------------



  FREE ENERGIE OF THE ION-ELECTRON SYSTEM (eV)
  ---------------------------------------------------
  free  energy   TOTEN  =      -299.97686991 eV

  energy  without entropy=     -299.80306532  energy(sigma->0) =     -299.88996761
 d Force =-0.6927472E+00[-0.102E+01,-0.366E+00]  d Energy =-0.6875834E+00-0.516E-02
 d Force =-0.9133849E+01[-0.118E+02,-0.648E+01]  d Ewald  =-0.9131139E+01-0.271E-02
 


--------------------------------------------------------------------------------------------------------


    POTLOK:  cpu time      0.4768: real time      0.0119


--------------------------------------------------------------------------------------------------------


           RANDOM_SEED =         140538244                0                0
   IONSTEP:  cpu time      0.0053: real time      0.0001

  ENERGY OF THE ELECTRON-ION-THERMOSTAT SYSTEM (eV)
  ---------------------------------------------------
% ion-electron   TOTEN  =      -299.976870  see above
  kinetic energy EKIN   =        16.113225
  kin. lattice  EKIN_LAT=         0.000000  (temperature 1978.68 K)
  nose potential ES     =       -38.747977
  nose kinetic   EPS    =         0.086196
  ---------------------------------------------------
  total energy   ETOTAL =      -322.525425 eV

  maximum distance moved by ions :      0.66E-02


 mean value of Nose-termostat <S>:    -1.206 mean value of <T> :  2050.246
 mean temperature <T/S>/<1/S>  :  2032.477

 Prediction of Wavefunctions ALPHA= 2.053 BETA=-1.073
    WAVPRE:  cpu time      2.1285: real time      0.0534
    FEWALD:  cpu time      1.7746: real time      0.0444
    ORTHCH:  cpu time      1.6264: real time      0.0406
    POTLOK:  cpu time      0.4079: real time      0.0102
    EDDIAG:  cpu time      3.2000: real time      0.0800
 writing wavefunctions
     LOOP+:  cpu time     92.9178: real time      2.6224
    4ORBIT:  cpu time      0.0000: real time      0.0000

 total amount of memory used by VASP MPI-rank0    44981. kBytes
=======================================================================

   base                                    :      30000. kBytes
   nonlr-proj                              :       2539. kBytes
   fftplans                                :       1264. kBytes
   grid                                    :       3250. kBytes
   one-center                              :         98. kBytes
   wavefun                                 :       7830. kBytes
 
  
  
 General timing and accounting informations for this job:
 ========================================================
  
                  Total CPU time used (sec):     2679.758
                            User time (sec):     2511.784
                          System time (sec):      167.974
                         Elapsed time (sec):       68.426
  
                   Maximum memory used (kb):      197312.
                   Average memory used (kb):          N/A
  
                          Minor page faults:       120784
                          Major page faults:            0
                 Voluntary context switches:         2935
