Program started at 
 running    4 mpi-ranks, with   40 threads/rank, on    1 nodes
 distrk:  each k-point on    4 cores,    1 groups
 distr:  one band on    1 cores,    4 groups
 vasp.6.5.0 16Dec24 (build Mar 16 2025 21:55:21) gamma-only                     
  
 POSCAR found type information on POSCAR Si
 POSCAR found :  1 types and      64 ions
 scaLAPACK will be used
 LDA part: xc-table for (Slater+PW92), standard interpolation
 POSCAR, INCAR and KPOINTS ok, starting setup
 FFT: planning ... GRIDC
 FFT: planning ... GRID_SOFT
 FFT: planning ... GRID
 WAVECAR not read
 prediction of wavefunctions initialized - no I/O
 entering main loop
       N       E                     dE             d eps       ncg     rms          rms(c)
RMM:   1     0.150861911857E+04    0.15086E+04   -0.44156E+04   164   0.500E+02
RMM:   2     0.277569538001E+03   -0.12310E+04   -0.12515E+04   164   0.142E+02
RMM:   3    -0.625959638295E+02   -0.34017E+03   -0.41936E+03   164   0.782E+01
RMM:   4    -0.189930781812E+03   -0.12733E+03   -0.14406E+03   164   0.557E+01
RMM:   5    -0.251447483946E+03   -0.61517E+02   -0.59174E+02   164   0.317E+01
RMM:   6    -0.279850167951E+03   -0.28403E+02   -0.25449E+02   164   0.217E+01
RMM:   7    -0.293309918881E+03   -0.13460E+02   -0.12153E+02   164   0.132E+01
RMM:   8    -0.300284963567E+03   -0.69750E+01   -0.61022E+01   164   0.928E+00
RMM:   9    -0.306724773285E+03   -0.64398E+01   -0.61335E+01   387   0.590E+00
RMM:  10    -0.307700152098E+03   -0.97538E+00   -0.89140E+00   383   0.205E+00
RMM:  11    -0.307947480130E+03   -0.24733E+00   -0.15273E+00   381   0.783E-01
RMM:  12    -0.308013750071E+03   -0.66270E-01   -0.44538E-01   372   0.374E-01    0.311E+01
RMM:  13    -0.302765034422E+03    0.52487E+01   -0.12856E+01   529   0.363E+00    0.183E+01
RMM:  14    -0.301684387239E+03    0.10806E+01   -0.31359E+00   468   0.226E+00    0.448E+00
RMM:  15    -0.301613586725E+03    0.70801E-01   -0.28558E-01   348   0.752E-01    0.828E-01
RMM:  16    -0.301609860339E+03    0.37264E-02   -0.77107E-02   346   0.393E-01    0.453E-01
RMM:  17    -0.301611431538E+03   -0.15712E-02   -0.21055E-02   343   0.220E-01    0.251E-01
RMM:  18    -0.301612495340E+03   -0.10638E-02   -0.41962E-03   352   0.108E-01    0.106E-01
RMM:  19    -0.301612709504E+03   -0.21416E-03   -0.11271E-03   339   0.543E-02    0.397E-02
RMM:  20    -0.301612745604E+03   -0.36101E-04   -0.27242E-04   217   0.256E-02
      1 T=  2248. E= -.32251453E+03 F= -.30161275E+03 E0= -.30151995E+03  EK= 0.18308E+02 SP= -.40E+02 SK= 0.68E+00
 bond charge predicted
       N       E                     dE             d eps       ncg     rms          rms(c)
RMM:   1    -0.301028285533E+03    0.58442E+00   -0.23452E+01   328   0.813E+00    0.184E+00
RMM:   2    -0.301233372461E+03   -0.20509E+00   -0.22969E+00   334   0.302E+00    0.974E-01
RMM:   3    -0.301276544155E+03   -0.43172E-01   -0.52092E-01   356   0.120E+00    0.997E-01
RMM:   4    -0.301270912737E+03    0.56314E-02   -0.74993E-02   342   0.518E-01    0.651E-01
RMM:   5    -0.301272657995E+03   -0.17453E-02   -0.49115E-02   329   0.335E-01    0.176E-01
RMM:   6    -0.301270486325E+03    0.21717E-02   -0.86317E-03   329   0.160E-01    0.878E-02
RMM:   7    -0.301270573845E+03   -0.87520E-04   -0.44588E-03   337   0.873E-02    0.372E-02
RMM:   8    -0.301270617412E+03   -0.43567E-04   -0.80713E-04   285   0.449E-02
      2 T=  2342. E= -.32251966E+03 F= -.30127062E+03 E0= -.30118704E+03  EK= 0.19075E+02 SP= -.41E+02 SK= 0.53E+00
Information: wavefunction orthogonal band  164  0.8907
 bond charge predicted
 prediction of wavefunctions
       N       E                     dE             d eps       ncg     rms          rms(c)
RMM:   1    -0.300959244281E+03    0.31133E+00   -0.13742E+00   329   0.208E+00    0.681E-01
RMM:   2    -0.300974602451E+03   -0.15358E-01   -0.18117E-01   349   0.760E-01    0.272E-01
RMM:   3    -0.300977429496E+03   -0.28270E-02   -0.36067E-02   374   0.302E-01    0.288E-01
RMM:   4    -0.300977186845E+03    0.24265E-03   -0.42906E-03   341   0.118E-01    0.160E-01
RMM:   5    -0.300977256550E+03   -0.69705E-04   -0.19289E-03   334   0.693E-02    0.303E-02
RMM:   6    -0.300977243496E+03    0.13055E-04   -0.34339E-04   236   0.319E-02
      3 T=  2427. E= -.32252940E+03 F= -.30097724E+03 E0= -.30090342E+03  EK= 0.19766E+02 SP= -.42E+02 SK= 0.37E+00
 bond charge predicted
 prediction of wavefunctions
       N       E                     dE             d eps       ncg     rms          rms(c)
RMM:   1    -0.300694223104E+03    0.28303E+00   -0.29589E-01   332   0.825E-01    0.230E-01
RMM:   2    -0.300701265413E+03   -0.70423E-02   -0.76226E-02   370   0.361E-01    0.105E-01
RMM:   3    -0.300702017894E+03   -0.75248E-03   -0.90167E-03   375   0.146E-01    0.102E-01
RMM:   4    -0.300702122117E+03   -0.10422E-03   -0.14749E-03   323   0.572E-02    0.742E-02
RMM:   5    -0.300702128012E+03   -0.58952E-05   -0.30947E-04   239   0.284E-02
      4 T=  2492. E= -.32254010E+03 F= -.30070213E+03 E0= -.30063069E+03  EK= 0.20297E+02 SP= -.42E+02 SK= 0.21E+00
 bond charge predicted
 prediction of wavefunctions
       N       E                     dE             d eps       ncg     rms          rms(c)
RMM:   1    -0.300381691011E+03    0.32043E+00   -0.37095E-01   333   0.914E-01    0.292E-01
RMM:   2    -0.300390885065E+03   -0.91941E-02   -0.10220E-01   373   0.413E-01    0.113E-01
RMM:   3    -0.300391844364E+03   -0.95930E-03   -0.11461E-02   371   0.166E-01    0.102E-01
RMM:   4    -0.300392011829E+03   -0.16746E-03   -0.21121E-03   336   0.672E-02    0.766E-02
RMM:   5    -0.300392032728E+03   -0.20899E-04   -0.37823E-04   255   0.315E-02
      5 T=  2526. E= -.32254209E+03 F= -.30039203E+03 E0= -.30031747E+03  EK= 0.20573E+02 SP= -.43E+02 SK= 0.85E-01
 bond charge predicted
 prediction of wavefunctions
       N       E                     dE             d eps       ncg     rms          rms(c)
RMM:   1    -0.300075401717E+03    0.31661E+00   -0.42744E-01   331   0.988E-01    0.288E-01
RMM:   2    -0.300085700621E+03   -0.10299E-01   -0.11666E-01   369   0.441E-01    0.133E-01
RMM:   3    -0.300086795714E+03   -0.10951E-02   -0.13564E-02   377   0.180E-01    0.122E-01
RMM:   4    -0.300086970933E+03   -0.17522E-03   -0.23635E-03   343   0.703E-02    0.862E-02
RMM:   5    -0.300086988798E+03   -0.17864E-04   -0.45195E-04   262   0.337E-02
      6 T=  2529. E= -.32253959E+03 F= -.30008699E+03 E0= -.30001494E+03  EK= 0.20597E+02 SP= -.43E+02 SK= 0.15E-01
 bond charge predicted
 prediction of wavefunctions
       N       E                     dE             d eps       ncg     rms          rms(c)
RMM:   1    -0.299856985011E+03    0.22999E+00   -0.44104E-01   331   0.980E-01    0.316E-01
RMM:   2    -0.299867594169E+03   -0.10609E-01   -0.13106E-01   374   0.447E-01    0.136E-01
RMM:   3    -0.299868678498E+03   -0.10843E-02   -0.14312E-02   375   0.183E-01    0.117E-01
RMM:   4    -0.299868900825E+03   -0.22233E-03   -0.30079E-03   355   0.753E-02    0.814E-02
RMM:   5    -0.299868925931E+03   -0.25106E-04   -0.46813E-04   264   0.338E-02
      7 T=  2510. E= -.32254256E+03 F= -.29986893E+03 E0= -.29980129E+03  EK= 0.20436E+02 SP= -.43E+02 SK= 0.21E-02
 bond charge predicted
 prediction of wavefunctions
       N       E                     dE             d eps       ncg     rms          rms(c)
RMM:   1    -0.299694070724E+03    0.17483E+00   -0.45289E-01   333   0.944E-01    0.272E-01
RMM:   2    -0.299705274515E+03   -0.11204E-01   -0.12444E-01   373   0.443E-01    0.111E-01
RMM:   3    -0.299706604081E+03   -0.13296E-02   -0.15130E-02   377   0.185E-01    0.105E-01
RMM:   4    -0.299706842316E+03   -0.23824E-03   -0.28042E-03   343   0.721E-02    0.792E-02
RMM:   5    -0.299706871108E+03   -0.28792E-04   -0.43175E-04   253   0.315E-02
      8 T=  2465. E= -.32254636E+03 F= -.29970687E+03 E0= -.29963919E+03  EK= 0.20077E+02 SP= -.43E+02 SK= 0.41E-01
 bond charge predicted
 prediction of wavefunctions
       N       E                     dE             d eps       ncg     rms          rms(c)
RMM:   1    -0.299497591136E+03    0.20925E+00   -0.48996E-01   334   0.988E-01    0.304E-01
RMM:   2    -0.299509636755E+03   -0.12046E-01   -0.13229E-01   376   0.461E-01    0.122E-01
RMM:   3    -0.299511008697E+03   -0.13719E-02   -0.15547E-02   374   0.189E-01    0.109E-01
RMM:   4    -0.299511271581E+03   -0.26288E-03   -0.29846E-03   344   0.750E-02    0.771E-02
RMM:   5    -0.299511313728E+03   -0.42147E-04   -0.53548E-04   263   0.343E-02
      9 T=  2391. E= -.32253989E+03 F= -.29951131E+03 E0= -.29944041E+03  EK= 0.19473E+02 SP= -.43E+02 SK= 0.12E+00
Information: wavefunction orthogonal band  160  0.8720
 bond charge predicted
 prediction of wavefunctions
       N       E                     dE             d eps       ncg     rms          rms(c)
RMM:   1    -0.299274071268E+03    0.23720E+00   -0.48311E-01   333   0.987E-01    0.303E-01
RMM:   2    -0.299286222769E+03   -0.12152E-01   -0.13291E-01   378   0.456E-01    0.124E-01
RMM:   3    -0.299287514066E+03   -0.12913E-02   -0.14818E-02   372   0.185E-01    0.103E-01
RMM:   4    -0.299287792512E+03   -0.27845E-03   -0.32042E-03   350   0.766E-02    0.714E-02
RMM:   5    -0.299287832754E+03   -0.40242E-04   -0.51904E-04   259   0.338E-02
     10 T=  2294. E= -.32252875E+03 F= -.29928783E+03 E0= -.29921032E+03  EK= 0.18677E+02 SP= -.42E+02 SK= 0.21E+00
 bond charge predicted
 prediction of wavefunctions
       N       E                     dE             d eps       ncg     rms          rms(c)
RMM:   1    -0.299105295421E+03    0.18250E+00   -0.51149E-01   339   0.950E-01    0.282E-01
RMM:   2    -0.299116577201E+03   -0.11282E-01   -0.12292E-01   374   0.449E-01    0.104E-01
RMM:   3    -0.299117997260E+03   -0.14201E-02   -0.15383E-02   376   0.186E-01    0.897E-02
RMM:   4    -0.299118286246E+03   -0.28899E-03   -0.31587E-03   349   0.765E-02    0.687E-02
RMM:   5    -0.299118326296E+03   -0.40049E-04   -0.51743E-04   256   0.333E-02
     11 T=  2189. E= -.32251946E+03 F= -.29911833E+03 E0= -.29903738E+03  EK= 0.17827E+02 SP= -.42E+02 SK= 0.28E+00
Information: wavefunction orthogonal band  161  0.8549
Information: wavefunction orthogonal band  163  0.8886
 bond charge predicted
 prediction of wavefunctions
       N       E                     dE             d eps       ncg     rms          rms(c)
RMM:   1    -0.299046725457E+03    0.71561E-01   -0.39447E-01   335   0.863E-01    0.286E-01
RMM:   2    -0.299055623067E+03   -0.88976E-02   -0.10355E-01   375   0.410E-01    0.110E-01
RMM:   3    -0.299056821010E+03   -0.11979E-02   -0.13741E-02   377   0.171E-01    0.830E-02
RMM:   4    -0.299057035489E+03   -0.21448E-03   -0.25198E-03   342   0.696E-02    0.589E-02
RMM:   5    -0.299057071294E+03   -0.35805E-04   -0.46289E-04   256   0.320E-02
     12 T=  2091. E= -.32251970E+03 F= -.29905707E+03 E0= -.29898165E+03  EK= 0.17025E+02 SP= -.41E+02 SK= 0.34E+00
 bond charge predicted
 prediction of wavefunctions
       N       E                     dE             d eps       ncg     rms          rms(c)
RMM:   1    -0.299060795721E+03   -0.37602E-02   -0.40444E-01   336   0.845E-01    0.245E-01
RMM:   2    -0.299070081097E+03   -0.92854E-02   -0.10456E-01   376   0.411E-01    0.106E-01
RMM:   3    -0.299071202438E+03   -0.11213E-02   -0.12635E-02   371   0.171E-01    0.910E-02
RMM:   4    -0.299071437830E+03   -0.23539E-03   -0.26904E-03   346   0.714E-02    0.632E-02
RMM:   5    -0.299071473296E+03   -0.35466E-04   -0.44154E-04   249   0.314E-02
     13 T=  2000. E= -.32252099E+03 F= -.29907147E+03 E0= -.29900092E+03  EK= 0.16289E+02 SP= -.40E+02 SK= 0.35E+00
 bond charge predicted
 prediction of wavefunctions
       N       E                     dE             d eps       ncg     rms          rms(c)
RMM:   1    -0.299107829685E+03   -0.36392E-01   -0.39721E-01   342   0.812E-01    0.220E-01
RMM:   2    -0.299116265714E+03   -0.84360E-02   -0.90252E-02   379   0.395E-01    0.858E-02
RMM:   3    -0.299117284567E+03   -0.10189E-02   -0.11315E-02   370   0.161E-01    0.778E-02
RMM:   4    -0.299117514142E+03   -0.22958E-03   -0.25424E-03   344   0.693E-02    0.594E-02
RMM:   5    -0.299117548874E+03   -0.34732E-04   -0.41503E-04   251   0.301E-02
     14 T=  1917. E= -.32252073E+03 F= -.29911755E+03 E0= -.29904581E+03  EK= 0.15614E+02 SP= -.39E+02 SK= 0.34E+00
Information: wavefunction orthogonal band  164  0.8671
 bond charge predicted
 prediction of wavefunctions
       N       E                     dE             d eps       ncg     rms          rms(c)
RMM:   1    -0.299166335541E+03   -0.48821E-01   -0.35959E-01   342   0.770E-01    0.216E-01
RMM:   2    -0.299173588233E+03   -0.72527E-02   -0.83255E-02   377   0.377E-01    0.877E-02
RMM:   3    -0.299174595869E+03   -0.10076E-02   -0.11691E-02   373   0.158E-01    0.804E-02
RMM:   4    -0.299174805919E+03   -0.21005E-03   -0.23827E-03   341   0.666E-02    0.586E-02
RMM:   5    -0.299174835413E+03   -0.29494E-04   -0.37686E-04   247   0.287E-02
     15 T=  1843. E= -.32251956E+03 F= -.29917484E+03 E0= -.29910229E+03  EK= 0.15007E+02 SP= -.39E+02 SK= 0.30E+00
 bond charge predicted
 prediction of wavefunctions
       N       E                     dE             d eps       ncg     rms          rms(c)
RMM:   1    -0.299239150289E+03   -0.64344E-01   -0.41053E-01   341   0.773E-01    0.206E-01
RMM:   2    -0.299247208925E+03   -0.80586E-02   -0.90662E-02   380   0.389E-01    0.844E-02
RMM:   3    -0.299248349957E+03   -0.11410E-02   -0.12818E-02   370   0.160E-01    0.755E-02
RMM:   4    -0.299248582233E+03   -0.23228E-03   -0.26053E-03   349   0.691E-02    0.546E-02
RMM:   5    -0.299248613726E+03   -0.31493E-04   -0.39335E-04   247   0.288E-02
     16 T=  1780. E= -.32251663E+03 F= -.29924861E+03 E0= -.29917608E+03  EK= 0.14495E+02 SP= -.38E+02 SK= 0.24E+00
Information: wavefunction orthogonal band  161  0.8953
 bond charge predicted
 prediction of wavefunctions
       N       E                     dE             d eps       ncg     rms          rms(c)
RMM:   1    -0.299351420284E+03   -0.10284E+00   -0.43053E-01   344   0.774E-01    0.200E-01
RMM:   2    -0.299359886467E+03   -0.84662E-02   -0.89113E-02   380   0.389E-01    0.777E-02
RMM:   3    -0.299361111480E+03   -0.12250E-02   -0.12840E-02   375   0.161E-01    0.688E-02
RMM:   4    -0.299361310557E+03   -0.19908E-03   -0.21721E-03   341   0.661E-02    0.509E-02
RMM:   5    -0.299361343266E+03   -0.32709E-04   -0.40371E-04   254   0.297E-02
     17 T=  1733. E= -.32251342E+03 F= -.29936134E+03 E0= -.29928751E+03  EK= 0.14112E+02 SP= -.37E+02 SK= 0.18E+00
 bond charge predicted
 prediction of wavefunctions
       N       E                     dE             d eps       ncg     rms          rms(c)
RMM:   1    -0.299515965666E+03   -0.15466E+00   -0.46596E-01   347   0.777E-01    0.204E-01
RMM:   2    -0.299525059360E+03   -0.90937E-02   -0.94371E-02   382   0.402E-01    0.743E-02
RMM:   3    -0.299526441687E+03   -0.13823E-02   -0.14502E-02   374   0.166E-01    0.634E-02
RMM:   4    -0.299526675448E+03   -0.23376E-03   -0.25268E-03   342   0.687E-02    0.468E-02
RMM:   5    -0.299526714761E+03   -0.39313E-04   -0.48246E-04   251   0.312E-02
     18 T=  1704. E= -.32251383E+03 F= -.29952671E+03 E0= -.29945080E+03  EK= 0.13874E+02 SP= -.37E+02 SK= 0.11E+00
Information: wavefunction orthogonal band  163  0.8581
 bond charge predicted
 prediction of wavefunctions
       N       E                     dE             d eps       ncg     rms          rms(c)
RMM:   1    -0.299709639875E+03   -0.18296E+00   -0.38172E-01   347   0.712E-01    0.193E-01
RMM:   2    -0.299717397484E+03   -0.77576E-02   -0.83281E-02   385   0.367E-01    0.757E-02
RMM:   3    -0.299718559498E+03   -0.11620E-02   -0.12241E-02   374   0.149E-01    0.674E-02
RMM:   4    -0.299718782055E+03   -0.22256E-03   -0.24001E-03   338   0.637E-02    0.488E-02
RMM:   5    -0.299718822610E+03   -0.40555E-04   -0.46702E-04   252   0.281E-02
     19 T=  1690. E= -.32251674E+03 F= -.29971882E+03 E0= -.29964165E+03  EK= 0.13760E+02 SP= -.37E+02 SK= 0.58E-01
Information: wavefunction orthogonal band  161  0.8976
 bond charge predicted
 prediction of wavefunctions
       N       E                     dE             d eps       ncg     rms          rms(c)
RMM:   1    -0.299869986148E+03   -0.15120E+00   -0.34585E-01   349   0.688E-01    0.181E-01
RMM:   2    -0.299876457657E+03   -0.64715E-02   -0.68646E-02   384   0.346E-01    0.743E-02
RMM:   3    -0.299877363639E+03   -0.90598E-03   -0.96858E-03   373   0.140E-01    0.713E-02
RMM:   4    -0.299877549370E+03   -0.18573E-03   -0.19993E-03   331   0.603E-02    0.526E-02
RMM:   5    -0.299877578424E+03   -0.29054E-04   -0.35338E-04   249   0.267E-02
     20 T=  1684. E= -.32251749E+03 F= -.29987758E+03 E0= -.29979832E+03  EK= 0.13714E+02 SP= -.36E+02 SK= 0.21E-01
Information: wavefunction orthogonal band  164  0.8957
 bond charge predicted
 prediction of wavefunctions
       N       E                     dE             d eps       ncg     rms          rms(c)
RMM:   1    -0.299962678885E+03   -0.85130E-01   -0.33383E-01   346   0.702E-01    0.188E-01
RMM:   2    -0.299969713516E+03   -0.70346E-02   -0.72453E-02   379   0.352E-01    0.700E-02
RMM:   3    -0.299970660077E+03   -0.94656E-03   -0.98611E-03   377   0.145E-01    0.724E-02
RMM:   4    -0.299970819157E+03   -0.15908E-03   -0.17208E-03   327   0.585E-02    0.570E-02
RMM:   5    -0.299970842400E+03   -0.23244E-04   -0.33884E-04   245   0.280E-02
     21 T=  1684. E= -.32251301E+03 F= -.29997084E+03 E0= -.29988673E+03  EK= 0.13709E+02 SP= -.36E+02 SK= 0.25E-02
 bond charge predicted
 prediction of wavefunctions
       N       E                     dE             d eps       ncg     rms          rms(c)
RMM:   1    -0.300028553793E+03   -0.57735E-01   -0.36641E-01   348   0.745E-01    0.179E-01
RMM:   2    -0.300036517373E+03   -0.79636E-02   -0.83121E-02   378   0.373E-01    0.749E-02
RMM:   3    -0.300037595053E+03   -0.10777E-02   -0.11272E-02   375   0.155E-01    0.785E-02
RMM:   4    -0.300037802103E+03   -0.20705E-03   -0.22645E-03   338   0.639E-02    0.625E-02
RMM:   5    -0.300037822612E+03   -0.20508E-04   -0.37124E-04   245   0.290E-02
     22 T=  1692. E= -.32250521E+03 F= -.30003782E+03 E0= -.29994722E+03  EK= 0.13782E+02 SP= -.36E+02 SK= 0.21E-02
 bond charge predicted
 prediction of wavefunctions
       N       E                     dE             d eps       ncg     rms          rms(c)
RMM:   1    -0.300160993219E+03   -0.12319E+00   -0.41813E-01   348   0.770E-01    0.190E-01
RMM:   2    -0.300169625475E+03   -0.86323E-02   -0.89982E-02   381   0.393E-01    0.792E-02
RMM:   3    -0.300170916796E+03   -0.12913E-02   -0.13402E-02   379   0.162E-01    0.763E-02
RMM:   4    -0.300171149868E+03   -0.23307E-03   -0.25185E-03   343   0.654E-02    0.576E-02
RMM:   5    -0.300171175048E+03   -0.25181E-04   -0.37335E-04   243   0.274E-02
     23 T=  1721. E= -.32250017E+03 F= -.30017118E+03 E0= -.30007468E+03  EK= 0.14017E+02 SP= -.36E+02 SK= 0.19E-01
Information: wavefunction orthogonal band  162  0.8827
 bond charge predicted
 prediction of wavefunctions
       N       E                     dE             d eps       ncg     rms          rms(c)
RMM:   1    -0.300417983970E+03   -0.24683E+00   -0.41104E-01   350   0.732E-01    0.189E-01
RMM:   2    -0.300426316020E+03   -0.83320E-02   -0.85920E-02   379   0.373E-01    0.699E-02
RMM:   3    -0.300427612539E+03   -0.12965E-02   -0.13373E-02   383   0.157E-01    0.645E-02
RMM:   4    -0.300427850525E+03   -0.23799E-03   -0.25324E-03   339   0.647E-02    0.485E-02
RMM:   5    -0.300427884362E+03   -0.33836E-04   -0.44194E-04   251   0.281E-02
     24 T=  1776. E= -.32250286E+03 F= -.30042788E+03 E0= -.30032642E+03  EK= 0.14461E+02 SP= -.37E+02 SK= 0.46E-01
 bond charge predicted
 prediction of wavefunctions
       N       E                     dE             d eps       ncg     rms          rms(c)
RMM:   1    -0.300747088087E+03   -0.31924E+00   -0.43521E-01   349   0.759E-01    0.207E-01
RMM:   2    -0.300756269551E+03   -0.91815E-02   -0.96235E-02   382   0.395E-01    0.750E-02
RMM:   3    -0.300757612017E+03   -0.13425E-02   -0.14035E-02   378   0.165E-01    0.702E-02
RMM:   4    -0.300757864000E+03   -0.25198E-03   -0.27210E-03   343   0.684E-02    0.537E-02
RMM:   5    -0.300757902846E+03   -0.38846E-04   -0.49749E-04   259   0.307E-02
     25 T=  1849. E= -.32250940E+03 F= -.30075790E+03 E0= -.30065159E+03  EK= 0.15057E+02 SP= -.37E+02 SK= 0.73E-01
 bond charge predicted
 prediction of wavefunctions
       N       E                     dE             d eps       ncg     rms          rms(c)
RMM:   1    -0.301036715006E+03   -0.27885E+00   -0.47965E-01   347   0.806E-01    0.254E-01
RMM:   2    -0.301046513245E+03   -0.97982E-02   -0.10528E-01   387   0.413E-01    0.894E-02
RMM:   3    -0.301047833458E+03   -0.13202E-02   -0.14460E-02   372   0.168E-01    0.765E-02
RMM:   4    -0.301048111477E+03   -0.27802E-03   -0.30508E-03   345   0.724E-02    0.581E-02
RMM:   5    -0.301048156947E+03   -0.45470E-04   -0.53711E-04   259   0.316E-02
     26 T=  1925. E= -.32251701E+03 F= -.30104816E+03 E0= -.30093878E+03  EK= 0.15677E+02 SP= -.37E+02 SK= 0.92E-01
Information: wavefunction orthogonal band  163  0.8668
Information: wavefunction orthogonal band  164  0.8776
 bond charge predicted
 prediction of wavefunctions
       N       E                     dE             d eps       ncg     rms          rms(c)
RMM:   1    -0.301172454325E+03   -0.12434E+00   -0.43454E-01   346   0.782E-01    0.255E-01
RMM:   2    -0.301181727750E+03   -0.92734E-02   -0.98629E-02   386   0.391E-01    0.837E-02
RMM:   3    -0.301182982422E+03   -0.12547E-02   -0.13438E-02   374   0.158E-01    0.738E-02
RMM:   4    -0.301183256936E+03   -0.27451E-03   -0.29513E-03   353   0.676E-02    0.566E-02
RMM:   5    -0.301183298430E+03   -0.41494E-04   -0.48440E-04   251   0.277E-02
     27 T=  1987. E= -.32252290E+03 F= -.30118330E+03 E0= -.30107598E+03  EK= 0.16183E+02 SP= -.38E+02 SK= 0.98E-01
 bond charge predicted
 prediction of wavefunctions
       N       E                     dE             d eps       ncg     rms          rms(c)
RMM:   1    -0.301061029489E+03    0.12223E+00   -0.46330E-01   349   0.787E-01    0.240E-01
RMM:   2    -0.301070645858E+03   -0.96164E-02   -0.10163E-01   387   0.400E-01    0.815E-02
RMM:   3    -0.301071989988E+03   -0.13441E-02   -0.14097E-02   371   0.162E-01    0.726E-02
RMM:   4    -0.301072289646E+03   -0.29966E-03   -0.31679E-03   356   0.707E-02    0.544E-02
RMM:   5    -0.301072335243E+03   -0.45596E-04   -0.51121E-04   247   0.286E-02
     28 T=  2021. E= -.32252763E+03 F= -.30107234E+03 E0= -.30097223E+03  EK= 0.16456E+02 SP= -.38E+02 SK= 0.95E-01
 bond charge predicted
 prediction of wavefunctions
       N       E                     dE             d eps       ncg     rms          rms(c)
RMM:   1    -0.300650706579E+03    0.42158E+00   -0.57357E-01   350   0.833E-01    0.229E-01
RMM:   2    -0.300662292752E+03   -0.11586E-01   -0.12301E-01   387   0.439E-01    0.836E-02
RMM:   3    -0.300664044989E+03   -0.17522E-02   -0.18087E-02   375   0.178E-01    0.758E-02
RMM:   4    -0.300664389481E+03   -0.34449E-03   -0.36619E-03   358   0.762E-02    0.588E-02
RMM:   5    -0.300664453288E+03   -0.63807E-04   -0.73404E-04   258   0.338E-02
     29 T=  2017. E= -.32253001E+03 F= -.30066445E+03 E0= -.30057226E+03  EK= 0.16427E+02 SP= -.38E+02 SK= 0.88E-01
 bond charge predicted
 prediction of wavefunctions
       N       E                     dE             d eps       ncg     rms          rms(c)
RMM:   1    -0.299956497728E+03    0.70789E+00   -0.75702E-01   349   0.929E-01    0.211E-01
RMM:   2    -0.299974082998E+03   -0.17585E-01   -0.17799E-01   393   0.513E-01    0.817E-02
RMM:   3    -0.299976345869E+03   -0.22629E-02   -0.23318E-02   376   0.201E-01    0.763E-02
RMM:   4    -0.299976798572E+03   -0.45270E-03   -0.47483E-03   365   0.849E-02    0.598E-02
RMM:   5    -0.299976869910E+03   -0.71338E-04   -0.88107E-04   266   0.365E-02
     30 T=  1979. E= -.32252543E+03 F= -.29997687E+03 E0= -.29988997E+03  EK= 0.16113E+02 SP= -.39E+02 SK= 0.86E-01
Information: wavefunction orthogonal band  157  0.8970
Information: wavefunction orthogonal band  164  0.8982
 bond charge predicted
 prediction of wavefunctions
 wavefunctions rotated
 writing wavefunctions
