<?xml version="1.0" encoding="ISO-8859-1"?>
<modeling>
 <generator>
  <i name="program" type="string">vasp </i>
  <i name="version" type="string">6.5.0  </i>
  <i name="subversion" type="string">16Dec24 (build Mar 16 2025 21:55:21) gamma-only                       parallel </i>
  <i name="platform" type="string">LinuxIFC </i>
  <i name="date" type="string">2025 11 04 </i>
  <i name="time" type="string">10:14:18 </i>
 </generator>
 <incar>
  <i type="string" name="SYSTEM">liquid Si</i>
  <i type="string" name="PREC">Low</i>
  <i type="string" name="ALGO">VeryFast</i>
  <i type="int" name="IBRION">     0</i>
  <i type="int" name="NSW">    30</i>
  <i type="int" name="ISIF">     2</i>
  <i type="int" name="ISYM">     0</i>
  <i name="POTIM">      3.00000000</i>
  <i name="TEBEG">   2000.00000000</i>
  <i name="TEEND">   2000.00000000</i>
  <i name="SMASS">      1.00000000</i>
  <i type="string" name="LREAL">Auto</i>
  <i type="int" name="ISMEAR">     0</i>
  <i name="SIGMA">      0.10000000</i>
  <i type="int" name="MDALGO">     2</i>
 </incar>
 <primitive_cell>
  <structure name="primitive_cell" >
   <crystal>
    <varray name="basis" >
     <v>      10.93745600       0.00000000       0.00000000 </v>
     <v>       0.00000000      10.93745600       0.00000000 </v>
     <v>       0.00000000       0.00000000      10.93745600 </v>
    </varray>
    <i name="volume">   1308.42537116 </i>
    <varray name="rec_basis" >
     <v>       0.09142894       0.00000000       0.00000000 </v>
     <v>       0.00000000       0.09142894       0.00000000 </v>
     <v>       0.00000000       0.00000000       0.09142894 </v>
    </varray>
   </crystal>
   <varray name="positions" >
    <v>       0.08421579       0.32816896       0.17672733 </v>
    <v>       0.16118440       0.34325767       0.64311829 </v>
    <v>       0.12551827       0.90887540       0.09236136 </v>
    <v>       0.12275086       0.87956258       0.63586956 </v>
    <v>       0.61684341       0.49850948       0.23722693 </v>
    <v>       0.65484450       0.32764759       0.65722351 </v>
    <v>       0.64753285       0.81448792       0.13946541 </v>
    <v>       0.64516523       0.87637249       0.57873934 </v>
    <v>       0.97515658       0.04210274       0.18612437 </v>
    <v>       0.98075903       0.02630815       0.74000131 </v>
    <v>       0.01398114       0.48215465       0.29226156 </v>
    <v>       0.11085854       0.47855945       0.80087009 </v>
    <v>       0.50805114       0.93683313       0.28587845 </v>
    <v>       0.55911434       0.99745642       0.70462744 </v>
    <v>       0.43645534       0.61155060       0.28315575 </v>
    <v>       0.49624836       0.43556197       0.79782874 </v>
    <v>       0.11578064       0.12740099       0.30937071 </v>
    <v>       0.02794869       0.09378216       0.94025736 </v>
    <v>       0.06768654       0.56543015       0.48603961 </v>
    <v>       0.15419352       0.65760279       0.92150244 </v>
    <v>       0.56503542       0.09974599       0.39983731 </v>
    <v>       0.67745003       0.14708336       0.80186995 </v>
    <v>       0.74357357       0.69706308       0.43034873 </v>
    <v>       0.63301624       0.56195784       0.01412862 </v>
    <v>       0.95137083       0.26647021       0.03708890 </v>
    <v>       0.04582050       0.28696960       0.44687776 </v>
    <v>       0.95408542       0.78785684       0.95101811 </v>
    <v>       0.98152387       0.78157703       0.45791103 </v>
    <v>       0.47053673       0.12173583       0.89633270 </v>
    <v>       0.52617444       0.25818805       0.52122465 </v>
    <v>       0.46324548       0.77773144       0.02123898 </v>
    <v>       0.47258716       0.74534247       0.48489820 </v>
    <v>       0.39655974       0.40293241       0.39459732 </v>
    <v>       0.32591618       0.30079474       0.85775218 </v>
    <v>       0.30656174       0.81558127       0.26745660 </v>
    <v>       0.38437507       0.93745525       0.83117585 </v>
    <v>       0.81219185       0.42305639       0.33647298 </v>
    <v>       0.93132901       0.40479874       0.88947793 </v>
    <v>       0.86618249       0.88857627       0.29347940 </v>
    <v>       0.83488195       0.90971186       0.82707874 </v>
    <v>       0.25244499       0.04030745       0.99205985 </v>
    <v>       0.22329481       0.01068826       0.46678057 </v>
    <v>       0.27574099       0.41288846       0.03449905 </v>
    <v>       0.27313095       0.51226201       0.58011019 </v>
    <v>       0.76786766       0.99330000       0.05280218 </v>
    <v>       0.75936097       0.03308213       0.42498245 </v>
    <v>       0.83485884       0.60732850       0.88901143 </v>
    <v>       0.79298368       0.48638129       0.51662155 </v>
    <v>       0.47797935       0.13034559       0.18494706 </v>
    <v>       0.35969933       0.11509045       0.57154815 </v>
    <v>       0.29063903       0.65575392       0.11637022 </v>
    <v>       0.40860094       0.60505378       0.69131072 </v>
    <v>       0.74656198       0.22509597       0.08283801 </v>
    <v>       0.94060890       0.13890335       0.57381563 </v>
    <v>       0.92322398       0.62746959       0.11848763 </v>
    <v>       0.93341591       0.58208967       0.67954389 </v>
    <v>       0.31386846       0.23191915       0.28722703 </v>
    <v>       0.17859342       0.12459610       0.67795022 </v>
    <v>       0.11885946       0.74924130       0.23460847 </v>
    <v>       0.27985874       0.76100554       0.77916089 </v>
    <v>       0.59282737       0.27502582       0.26130290 </v>
    <v>       0.88243060       0.24401249       0.75400062 </v>
    <v>       0.76146622       0.66747192       0.23642690 </v>
    <v>       0.76497654       0.72443329       0.72467891 </v>
   </varray>
  </structure>
  <varray name="primitive_index" >
   <v type="int" >        1 </v>
   <v type="int" >        2 </v>
   <v type="int" >        3 </v>
   <v type="int" >        4 </v>
   <v type="int" >        5 </v>
   <v type="int" >        6 </v>
   <v type="int" >        7 </v>
   <v type="int" >        8 </v>
   <v type="int" >        9 </v>
   <v type="int" >       10 </v>
   <v type="int" >       11 </v>
   <v type="int" >       12 </v>
   <v type="int" >       13 </v>
   <v type="int" >       14 </v>
   <v type="int" >       15 </v>
   <v type="int" >       16 </v>
   <v type="int" >       17 </v>
   <v type="int" >       18 </v>
   <v type="int" >       19 </v>
   <v type="int" >       20 </v>
   <v type="int" >       21 </v>
   <v type="int" >       22 </v>
   <v type="int" >       23 </v>
   <v type="int" >       24 </v>
   <v type="int" >       25 </v>
   <v type="int" >       26 </v>
   <v type="int" >       27 </v>
   <v type="int" >       28 </v>
   <v type="int" >       29 </v>
   <v type="int" >       30 </v>
   <v type="int" >       31 </v>
   <v type="int" >       32 </v>
   <v type="int" >       33 </v>
   <v type="int" >       34 </v>
   <v type="int" >       35 </v>
   <v type="int" >       36 </v>
   <v type="int" >       37 </v>
   <v type="int" >       38 </v>
   <v type="int" >       39 </v>
   <v type="int" >       40 </v>
   <v type="int" >       41 </v>
   <v type="int" >       42 </v>
   <v type="int" >       43 </v>
   <v type="int" >       44 </v>
   <v type="int" >       45 </v>
   <v type="int" >       46 </v>
   <v type="int" >       47 </v>
   <v type="int" >       48 </v>
   <v type="int" >       49 </v>
   <v type="int" >       50 </v>
   <v type="int" >       51 </v>
   <v type="int" >       52 </v>
   <v type="int" >       53 </v>
   <v type="int" >       54 </v>
   <v type="int" >       55 </v>
   <v type="int" >       56 </v>
   <v type="int" >       57 </v>
   <v type="int" >       58 </v>
   <v type="int" >       59 </v>
   <v type="int" >       60 </v>
   <v type="int" >       61 </v>
   <v type="int" >       62 </v>
   <v type="int" >       63 </v>
   <v type="int" >       64 </v>
  </varray>
 </primitive_cell>
 <kpoints>
  <generation param="Monkhorst-Pack">
   <v type="int" name="divisions">       1        1        1 </v>
   <v name="usershift">      0.00000000       0.00000000       0.00000000 </v>
   <v name="genvec1">      1.00000000       0.00000000       0.00000000 </v>
   <v name="genvec2">      0.00000000       1.00000000       0.00000000 </v>
   <v name="genvec3">      0.00000000       0.00000000       1.00000000 </v>
   <v name="shift">      0.00000000       0.00000000       0.00000000 </v>
  </generation>
  <varray name="kpointlist" >
   <v>       0.00000000       0.00000000       0.00000000 </v>
  </varray>
  <varray name="weights" >
   <v>       1.00000000 </v>
  </varray>
 </kpoints>
 <parameters>
  <separator name="general" >
   <i type="string" name="SYSTEM">liquid Si</i>
   <i type="logical" name="LCOMPAT"> F  </i>
  </separator>
  <separator name="electronic" >
   <i type="string" name="PREC">low</i>
   <i name="ENMAX">    184.00900000</i>
   <i name="ENAUG">    322.06900000</i>
   <i name="EDIFF">      0.00010000</i>
   <i type="int" name="IALGO">    48</i>
   <i type="int" name="IWAVPR">    12</i>
   <i type="int" name="NBANDS">   164</i>
   <i type="int" name="NBANDSLOW">    -1</i>
   <i type="int" name="NBANDSHIGH">    -1</i>
   <i name="NELECT">    256.00000000</i>
   <i type="int" name="TURBO">     0</i>
   <i type="int" name="IRESTART">     0</i>
   <i type="int" name="NREBOOT">     0</i>
   <i type="int" name="NMIN">     0</i>
   <i name="EREF">      0.00000000</i>
   <separator name="electronic smearing" >
    <i type="int" name="ISMEAR">     0</i>
    <i name="SIGMA">      0.10000000</i>
    <i name="KSPACING">      0.50000000</i>
    <i type="logical" name="KGAMMA"> T  </i>
    <i type="logical" name="KBLOWUP"> T  </i>
   </separator>
   <separator name="electronic projectors" >
    <i type="logical" name="LREAL"> T  </i>
    <v name="ROPT">     -0.01000000</v>
    <i type="int" name="LMAXPAW">  -100</i>
    <i type="int" name="LMAXMIX">     2</i>
    <i type="logical" name="NLSPLINE"> F  </i>
   </separator>
   <separator name="electronic startup" >
    <i type="int" name="ISTART">     0</i>
    <i type="int" name="ICHARG">     2</i>
    <i type="int" name="INIWAV">     1</i>
   </separator>
   <separator name="electronic spin" >
    <i type="int" name="ISPIN">     1</i>
    <i type="logical" name="LNONCOLLINEAR"> F  </i>
    <v name="MAGMOM">      1.00000000      1.00000000      1.00000000      1.00000000      1.00000000      1.00000000      1.00000000      1.00000000      1.00000000      1.00000000      1.00000000      1.00000000      1.00000000      1.00000000      1.00000000      1.00000000      1.00000000      1.00000000      1.00000000      1.00000000
      1.00000000      1.00000000      1.00000000      1.00000000      1.00000000      1.00000000      1.00000000      1.00000000      1.00000000      1.00000000      1.00000000      1.00000000      1.00000000      1.00000000      1.00000000      1.00000000      1.00000000      1.00000000      1.00000000      1.00000000
      1.00000000      1.00000000      1.00000000      1.00000000      1.00000000      1.00000000      1.00000000      1.00000000      1.00000000      1.00000000      1.00000000      1.00000000      1.00000000      1.00000000      1.00000000      1.00000000      1.00000000      1.00000000      1.00000000      1.00000000
      1.00000000      1.00000000      1.00000000      1.00000000</v>
    <i name="NUPDOWN">     -1.00000000</i>
    <i type="logical" name="LSORBIT"> F  </i>
    <v name="SAXIS">      0.00000000      0.00000000      1.00000000</v>
    <i type="logical" name="LSPIRAL"> F  </i>
    <v name="QSPIRAL">      0.00000000      0.00000000      0.00000000</v>
    <i type="logical" name="LZEROZ"> F  </i>
   </separator>
   <separator name="electronic exchange-correlation" >
    <i type="logical" name="LASPH"> F  </i>
   </separator>
   <separator name="electronic convergence" >
    <i type="int" name="NELM">    60</i>
    <i type="int" name="NELMDL">   -12</i>
    <i type="int" name="NELMIN">     2</i>
    <i name="ENINI">    184.00900000</i>
    <separator name="electronic convergence detail" >
     <i type="logical" name="LDIAG"> T  </i>
     <i type="logical" name="LSUBROT"> F  </i>
     <i name="WEIMIN">      0.00100000</i>
     <i name="EBREAK">      0.00000015</i>
     <i name="DEPER">      0.30000000</i>
     <i type="int" name="NRMM">     4</i>
     <i name="TIME">      0.40000000</i>
    </separator>
   </separator>
   <separator name="electronic mixer" >
    <i name="AMIX">      0.40000000</i>
    <i name="BMIX">      1.00000000</i>
    <i name="AMIN">      0.10000000</i>
    <i name="AMIX_MAG">      1.60000000</i>
    <i name="BMIX_MAG">      1.00000000</i>
    <separator name="electronic mixer details" >
     <i type="int" name="IMIX">     4</i>
     <i type="logical" name="MIXFIRST"> F  </i>
     <i type="int" name="MAXMIX">   -45</i>
     <i name="WC">    100.00000000</i>
     <i type="int" name="INIMIX">     1</i>
     <i type="int" name="MIXPRE">     1</i>
     <i type="int" name="MREMOVE">     5</i>
    </separator>
   </separator>
   <separator name="electronic dipolcorrection" >
    <i type="logical" name="LDIPOL"> F  </i>
    <i type="logical" name="LMONO"> F  </i>
    <i type="int" name="IDIPOL">     0</i>
    <i name="EPSILON">      1.00000000</i>
    <v name="DIPOL">   -100.00000000   -100.00000000   -100.00000000</v>
    <i name="EFIELD">      0.00000000</i>
    <i type="logical" name="LVACPOTAV"> F  </i>
   </separator>
  </separator>
  <separator name="grids" >
   <i type="int" name="NGX">    36</i>
   <i type="int" name="NGY">    36</i>
   <i type="int" name="NGZ">    36</i>
   <i type="int" name="NGXF">    48</i>
   <i type="int" name="NGYF">    48</i>
   <i type="int" name="NGZF">    48</i>
   <i type="logical" name="ADDGRID"> F  </i>
  </separator>
  <separator name="ionic" >
   <i type="int" name="NSW">    30</i>
   <i type="int" name="IBRION">     0</i>
   <i type="int" name="MDALGO">     2</i>
   <i type="int" name="ISIF">     2</i>
   <i name="PSTRESS">      0.00000000</i>
   <i name="EDIFFG">      0.00100000</i>
   <i type="int" name="NFREE">     0</i>
   <i name="POTIM">      3.00000000</i>
   <i name="SMASS">      1.00000000</i>
   <i name="SCALEE">      1.00000000</i>
  </separator>
  <separator name="ionic md" >
   <i name="TEBEG">   2000.00000000</i>
   <i name="TEEND">   2000.00000000</i>
   <i type="int" name="NBLOCK">     1</i>
   <i type="int" name="KBLOCK">    30</i>
   <i type="int" name="NPACO">   256</i>
   <i name="APACO">     10.00000000</i>
  </separator>
  <separator name="symmetry" >
   <i type="int" name="ISYM">     0</i>
   <i name="SYMPREC">      0.00001000</i>
  </separator>
  <separator name="dos" >
   <i type="int" name="LORBIT">     0</i>
   <v name="RWIGS">     -1.00000000</v>
   <i type="int" name="NEDOS">   301</i>
   <i name="EMIN">     10.00000000</i>
   <i name="EMAX">    -10.00000000</i>
   <i name="EFERMI">      0.00000000</i>
  </separator>
  <separator name="writing" >
   <i type="int" name="NWRITE">     2</i>
   <i type="logical" name="LWAVE"> T  </i>
   <i type="logical" name="LDOWNSAMPLE"> F  </i>
   <i type="logical" name="LCHARG"> T  </i>
   <i type="logical" name="LPARD"> F  </i>
   <i type="logical" name="LVTOT"> F  </i>
   <i type="logical" name="LVHAR"> F  </i>
   <i type="logical" name="LELF"> F  </i>
   <i type="logical" name="LOPTICS"> F  </i>
   <v name="STM">      0.00000000      0.00000000      0.00000000      0.00000000      0.00000000      0.00000000      0.00000000</v>
  </separator>
  <separator name="performance" >
   <i type="int" name="NPAR">     4</i>
   <i type="int" name="NSIM">     4</i>
   <i type="int" name="NBLK">    -1</i>
   <i type="logical" name="LPLANE"> T  </i>
   <i type="logical" name="LSCALAPACK"> T  </i>
   <i type="logical" name="LSCAAWARE"> F  </i>
   <i type="logical" name="LSCALU"> F  </i>
   <i type="logical" name="LASYNC"> F  </i>
   <i type="logical" name="LORBITALREAL"> F  </i>
  </separator>
  <separator name="miscellaneous" >
   <i type="int" name="IDIOT">     3</i>
   <i type="int" name="PHON_NSTRUCT">    -1</i>
   <i type="logical" name="LMUSIC"> F  </i>
   <v name="POMASS">     28.08500000</v>
   <v name="DARWINR">      0.00000000</v>
   <v name="DARWINV">      1.00000000</v>
   <i type="logical" name="LCORR"> T  </i>
  </separator>
  <i type="logical" name="GGA_COMPAT"> T  </i>
  <i type="logical" name="LBERRY"> F  </i>
  <i type="int" name="ICORELEVEL">     0</i>
  <i type="logical" name="LDAU"> F  </i>
  <i type="int" name="I_CONSTRAINED_M">     0</i>
  <separator name="electronic exchange-correlation" >
   <i type="string" name="GGA    ">PE</i>
   <i type="string" name="XC_C">1</i>
   <i type="int" name="VOSKOWN">     0</i>
   <i type="logical" name="LHFCALC"> F  </i>
   <i type="string" name="PRECFOCK"></i>
   <i type="logical" name="LSYMGRAD"> F  </i>
   <i type="logical" name="LHFONE"> F  </i>
   <i type="logical" name="LRHFCALC"> F  </i>
   <i type="logical" name="LTHOMAS"> F  </i>
   <i type="logical" name="LMODELHF"> F  </i>
   <i type="logical" name="LFOCKACE"> F  </i>
   <i name="ENCUT4O">     -1.00000000</i>
   <i type="int" name="EXXOEP">     0</i>
   <i type="int" name="FOURORBIT">     0</i>
   <i name="AEXX">      0.00000000</i>
   <i name="HFALPHA">      0.00000000</i>
   <i name="MCALPHA">      0.00000000</i>
   <i name="ALDAX">      1.00000000</i>
   <i name="AGGAX">      1.00000000</i>
   <i name="AMGGAX">      1.00000000</i>
   <i name="ALDAC">      1.00000000</i>
   <i name="AGGAC">      1.00000000</i>
   <i name="AMGGAC">      1.00000000</i>
   <i type="int" name="NKREDX">     1</i>
   <i type="int" name="NKREDY">     1</i>
   <i type="int" name="NKREDZ">     1</i>
   <i type="logical" name="SHIFTRED"> F  </i>
   <i type="logical" name="ODDONLY"> F  </i>
   <i type="logical" name="EVENONLY"> F  </i>
   <i type="int" name="LMAXFOCK">     0</i>
   <i type="int" name="NMAXFOCKAE">     0</i>
   <i type="logical" name="LFOCKAEDFT"> F  </i>
   <i name="HFSCREEN">      0.00000000</i>
   <i name="HFSCREENC">      0.00000000</i>
   <i type="int" name="NBANDSGWLOW">     0</i>
  </separator>
  <separator name="vdW DFT" >
   <i type="logical" name="LUSE_VDW"> F  </i>
   <i type="int" name="IVDW_NL">    -1</i>
   <i type="logical" name="LSPIN_VDW"> F  </i>
   <i name="ZAB_VDW">     -0.84910000</i>
   <i name="GAMMA_VDW">      1.39626340</i>
   <i name="ALPHA_VDW">      0.00000000</i>
   <i name="PARAM1">      0.12340000</i>
   <i name="PARAM2">      1.00000000</i>
   <i name="BPARAM">      6.30000000</i>
   <i name="CPARAM">      0.00930000</i>
  </separator>
  <separator name="model GW" >
   <i type="int" name="MODEL_GW">     0</i>
   <i name="MODEL_EPS0">     12.26648785</i>
   <i name="MODEL_ALPHA">      1.00000000</i>
  </separator>
  <separator name="linear response parameters" >
   <i type="logical" name="LEPSILON"> F  </i>
   <i type="logical" name="LRPA"> F  </i>
   <i type="logical" name="LNABLA"> F  </i>
   <i type="logical" name="LVEL"> F  </i>
   <i name="CSHIFT">      0.10000000</i>
   <i name="OMEGAMAX">     -1.00000000</i>
   <i name="DEG_THRESHOLD">      0.00200000</i>
   <i name="RTIME">     -0.10000000</i>
   <i name="WPLASMAI">      0.00000000</i>
   <v name="DFIELD">      0.00000000      0.00000000      0.00000000</v>
   <v name="WPLASMA">      0.00000000      0.00000000      0.00000000      0.00000000      0.00000000      0.00000000      0.00000000      0.00000000      0.00000000</v>
  </separator>
  <separator name="orbital magnetization" >
   <i type="logical" name="NUCIND"> F  </i>
   <v name="MAGPOS">      0.00000000      0.00000000      0.00000000</v>
   <i type="logical" name="LNICSALL"> T  </i>
   <i type="logical" name="ORBITALMAG"> F  </i>
   <i type="logical" name="LMAGBLOCH"> F  </i>
   <i type="logical" name="LCHIMAG"> F  </i>
   <i type="logical" name="LGAUGE"> T  </i>
   <i type="int" name="MAGATOM">     0</i>
   <v name="MAGDIPOL">      0.00000000      0.00000000      0.00000000</v>
   <v name="AVECCONST">      0.00000000      0.00000000      0.00000000</v>
  </separator>
  <separator name="response functions" >
   <i type="logical" name="LALL_IN_ONE"> F  </i>
   <i type="int" name="IALL_IN_ONE">    -1</i>
   <i type="int" name="NBANDS_WAVE">    -1</i>
   <i type="logical" name="LFINITE_TEMPERATURE"> F  </i>
   <i type="logical" name="LADDER"> F  </i>
   <i type="logical" name="LRPAFORCE"> F  </i>
   <i type="logical" name="LFXC"> F  </i>
   <i type="logical" name="LHARTREE"> T  </i>
   <i type="int" name="IBSE">     2</i>
   <v type="int" name="KPOINT">    -1     0     0     0</v>
   <i type="logical" name="LTCTC"> F  </i>
   <i type="logical" name="LTCTE"> F  </i>
   <i type="logical" name="LTETE"> F  </i>
   <i type="logical" name="LTRIPLET"> F  </i>
   <i type="logical" name="LFXCEPS"> F  </i>
   <i type="logical" name="LFXHEG"> F  </i>
   <i type="int" name="NATURALO">     2</i>
   <i type="logical" name="LHOLEGF"> F  </i>
   <i type="logical" name="L2ORDER"> F  </i>
   <i type="logical" name="LDMP1"> F  </i>
   <i type="logical" name="LMP2LT"> F  </i>
   <i type="logical" name="LSMP2LT"> F  </i>
   <i type="logical" name="LGWLF"> F  </i>
   <i name="ENCUTGW">     -1.60000002</i>
   <i name="ENCUTGWSOFT">     -1.60000002</i>
   <i name="ENCUTLF">     -1.00000000</i>
   <i type="logical" name="ESF_SPLINES"> F  </i>
   <i name="ESF_CONV">      0.01000000</i>
   <i type="int" name="ESF_NINTER">    15</i>
   <i type="int" name="LMAXMP2">    -1</i>
   <i name="SCISSOR">      0.00000000</i>
   <i type="int" name="NOMEGA">     0</i>
   <i type="int" name="NOMEGAR">     0</i>
   <i type="int" name="NBANDSGW">    -1</i>
   <i type="int" name="NBANDSO">    -1</i>
   <i type="int" name="NBANDSV">    -1</i>
   <i type="int" name="NELMGW">     1</i>
   <i type="int" name="NELMHF">     1</i>
   <i type="int" name="DIM">     3</i>
   <i type="int" name="IESPILON">     4</i>
   <i type="int" name="ANTIRES">     0</i>
   <i name="OMEGAMAX">    -30.00000000</i>
   <i name="OMEGAMIN">    -30.00000000</i>
   <i name="OMEGATL">   -200.00000000</i>
   <i type="int" name="OMEGAGRID">     0</i>
   <i name="CSHIFT">     -0.10000000</i>
   <i type="logical" name="LSELFENERGY"> F  </i>
   <i type="logical" name="LSPECTRAL"> F  </i>
   <i type="logical" name="LSPECTRALGW"> F  </i>
   <i type="logical" name="LSINGLES"> F  </i>
   <i type="logical" name="LFERMIGW"> F  </i>
   <i type="logical" name="ODDONLYGW"> F  </i>
   <i type="logical" name="EVENONLYGW"> F  </i>
   <i type="int" name="NKREDLFX">     1</i>
   <i type="int" name="NKREDLFY">     1</i>
   <i type="int" name="NKREDLFZ">     1</i>
   <i type="int" name="MAXMEM">  2800</i>
   <i type="int" name="TELESCOPE">     0</i>
   <i type="int" name="NTAUPAR">    -1</i>
   <i type="int" name="NOMEGAPAR">    -1</i>
   <i name="DAMP_NEWTON">      0.80000001</i>
   <i name="LAMBDA">      1.00000000</i>
  </separator>
  <separator name="External order field" >
   <i name="OFIELD_KAPPA">      0.00000000</i>
   <v name="OFIELD_K">      0.00000000      0.00000000      0.00000000</v>
   <i name="OFIELD_Q6_NEAR">      0.00000000</i>
   <i name="OFIELD_Q6_FAR">      0.00000000</i>
   <i name="OFIELD_A">      0.00000000</i>
  </separator>
  <separator name="optional k-points parameters" >
   <i type="int" name="KPOINTS_OPT_MODE">     1</i>
   <i type="logical" name="LKPOINTS_OPT"> F  </i>
  </separator>
 </parameters>
 <atominfo>
  <atoms>      64 </atoms>
  <types>       1 </types>
  <array name="atoms" >
   <dimension dim="1">ion</dimension>
   <field type="string">element</field>
   <field type="int">atomtype</field>
   <set>
    <rc><c>Si</c><c>   1</c></rc>
    <rc><c>Si</c><c>   1</c></rc>
    <rc><c>Si</c><c>   1</c></rc>
    <rc><c>Si</c><c>   1</c></rc>
    <rc><c>Si</c><c>   1</c></rc>
    <rc><c>Si</c><c>   1</c></rc>
    <rc><c>Si</c><c>   1</c></rc>
    <rc><c>Si</c><c>   1</c></rc>
    <rc><c>Si</c><c>   1</c></rc>
    <rc><c>Si</c><c>   1</c></rc>
    <rc><c>Si</c><c>   1</c></rc>
    <rc><c>Si</c><c>   1</c></rc>
    <rc><c>Si</c><c>   1</c></rc>
    <rc><c>Si</c><c>   1</c></rc>
    <rc><c>Si</c><c>   1</c></rc>
    <rc><c>Si</c><c>   1</c></rc>
    <rc><c>Si</c><c>   1</c></rc>
    <rc><c>Si</c><c>   1</c></rc>
    <rc><c>Si</c><c>   1</c></rc>
    <rc><c>Si</c><c>   1</c></rc>
    <rc><c>Si</c><c>   1</c></rc>
    <rc><c>Si</c><c>   1</c></rc>
    <rc><c>Si</c><c>   1</c></rc>
    <rc><c>Si</c><c>   1</c></rc>
    <rc><c>Si</c><c>   1</c></rc>
    <rc><c>Si</c><c>   1</c></rc>
    <rc><c>Si</c><c>   1</c></rc>
    <rc><c>Si</c><c>   1</c></rc>
    <rc><c>Si</c><c>   1</c></rc>
    <rc><c>Si</c><c>   1</c></rc>
    <rc><c>Si</c><c>   1</c></rc>
    <rc><c>Si</c><c>   1</c></rc>
    <rc><c>Si</c><c>   1</c></rc>
    <rc><c>Si</c><c>   1</c></rc>
    <rc><c>Si</c><c>   1</c></rc>
    <rc><c>Si</c><c>   1</c></rc>
    <rc><c>Si</c><c>   1</c></rc>
    <rc><c>Si</c><c>   1</c></rc>
    <rc><c>Si</c><c>   1</c></rc>
    <rc><c>Si</c><c>   1</c></rc>
    <rc><c>Si</c><c>   1</c></rc>
    <rc><c>Si</c><c>   1</c></rc>
    <rc><c>Si</c><c>   1</c></rc>
    <rc><c>Si</c><c>   1</c></rc>
    <rc><c>Si</c><c>   1</c></rc>
    <rc><c>Si</c><c>   1</c></rc>
    <rc><c>Si</c><c>   1</c></rc>
    <rc><c>Si</c><c>   1</c></rc>
    <rc><c>Si</c><c>   1</c></rc>
    <rc><c>Si</c><c>   1</c></rc>
    <rc><c>Si</c><c>   1</c></rc>
    <rc><c>Si</c><c>   1</c></rc>
    <rc><c>Si</c><c>   1</c></rc>
    <rc><c>Si</c><c>   1</c></rc>
    <rc><c>Si</c><c>   1</c></rc>
    <rc><c>Si</c><c>   1</c></rc>
    <rc><c>Si</c><c>   1</c></rc>
    <rc><c>Si</c><c>   1</c></rc>
    <rc><c>Si</c><c>   1</c></rc>
    <rc><c>Si</c><c>   1</c></rc>
    <rc><c>Si</c><c>   1</c></rc>
    <rc><c>Si</c><c>   1</c></rc>
    <rc><c>Si</c><c>   1</c></rc>
    <rc><c>Si</c><c>   1</c></rc>
   </set>
  </array>
  <array name="atomtypes" >
   <dimension dim="1">type</dimension>
   <field type="int">atomspertype</field>
   <field type="string">element</field>
   <field>mass</field>
   <field>valence</field>
   <field type="string">pseudopotential</field>
   <set>
    <rc><c>  64</c><c>Si</c><c>     28.08500000</c><c>      4.00000000</c><c>  PAW_PBE Si 05Jan2001                  </c></rc>
   </set>
  </array>
 </atominfo>
 <structure name="initialpos" >
  <crystal>
   <varray name="basis" >
    <v>      10.93745600       0.00000000       0.00000000 </v>
    <v>       0.00000000      10.93745600       0.00000000 </v>
    <v>       0.00000000       0.00000000      10.93745600 </v>
   </varray>
   <i name="volume">   1308.42537116 </i>
   <varray name="rec_basis" >
    <v>       0.09142894       0.00000000       0.00000000 </v>
    <v>       0.00000000       0.09142894       0.00000000 </v>
    <v>       0.00000000       0.00000000       0.09142894 </v>
   </varray>
  </crystal>
  <varray name="positions" >
   <v>       0.08421579       0.32816896       0.17672733 </v>
   <v>       0.16118440       0.34325767       0.64311829 </v>
   <v>       0.12551827       0.90887540       0.09236136 </v>
   <v>       0.12275086       0.87956258       0.63586956 </v>
   <v>       0.61684341       0.49850948       0.23722693 </v>
   <v>       0.65484450       0.32764759       0.65722351 </v>
   <v>       0.64753285       0.81448792       0.13946541 </v>
   <v>       0.64516523       0.87637249       0.57873934 </v>
   <v>       0.97515658       0.04210274       0.18612437 </v>
   <v>       0.98075903       0.02630815       0.74000131 </v>
   <v>       0.01398114       0.48215465       0.29226156 </v>
   <v>       0.11085854       0.47855945       0.80087009 </v>
   <v>       0.50805114       0.93683313       0.28587845 </v>
   <v>       0.55911434       0.99745642       0.70462744 </v>
   <v>       0.43645534       0.61155060       0.28315575 </v>
   <v>       0.49624836       0.43556197       0.79782874 </v>
   <v>       0.11578064       0.12740099       0.30937071 </v>
   <v>       0.02794869       0.09378216       0.94025736 </v>
   <v>       0.06768654       0.56543015       0.48603961 </v>
   <v>       0.15419352       0.65760279       0.92150244 </v>
   <v>       0.56503542       0.09974599       0.39983731 </v>
   <v>       0.67745003       0.14708336       0.80186995 </v>
   <v>       0.74357357       0.69706308       0.43034873 </v>
   <v>       0.63301624       0.56195784       0.01412862 </v>
   <v>       0.95137083       0.26647021       0.03708890 </v>
   <v>       0.04582050       0.28696960       0.44687776 </v>
   <v>       0.95408542       0.78785684       0.95101811 </v>
   <v>       0.98152387       0.78157703       0.45791103 </v>
   <v>       0.47053673       0.12173583       0.89633270 </v>
   <v>       0.52617444       0.25818805       0.52122465 </v>
   <v>       0.46324548       0.77773144       0.02123898 </v>
   <v>       0.47258716       0.74534247       0.48489820 </v>
   <v>       0.39655974       0.40293241       0.39459732 </v>
   <v>       0.32591618       0.30079474       0.85775218 </v>
   <v>       0.30656174       0.81558127       0.26745660 </v>
   <v>       0.38437507       0.93745525       0.83117585 </v>
   <v>       0.81219185       0.42305639       0.33647298 </v>
   <v>       0.93132901       0.40479874       0.88947793 </v>
   <v>       0.86618249       0.88857627       0.29347940 </v>
   <v>       0.83488195       0.90971186       0.82707874 </v>
   <v>       0.25244499       0.04030745       0.99205985 </v>
   <v>       0.22329481       0.01068826       0.46678057 </v>
   <v>       0.27574099       0.41288846       0.03449905 </v>
   <v>       0.27313095       0.51226201       0.58011019 </v>
   <v>       0.76786766       0.99330000       0.05280218 </v>
   <v>       0.75936097       0.03308213       0.42498245 </v>
   <v>       0.83485884       0.60732850       0.88901143 </v>
   <v>       0.79298368       0.48638129       0.51662155 </v>
   <v>       0.47797935       0.13034559       0.18494706 </v>
   <v>       0.35969933       0.11509045       0.57154815 </v>
   <v>       0.29063903       0.65575392       0.11637022 </v>
   <v>       0.40860094       0.60505378       0.69131072 </v>
   <v>       0.74656198       0.22509597       0.08283801 </v>
   <v>       0.94060890       0.13890335       0.57381563 </v>
   <v>       0.92322398       0.62746959       0.11848763 </v>
   <v>       0.93341591       0.58208967       0.67954389 </v>
   <v>       0.31386846       0.23191915       0.28722703 </v>
   <v>       0.17859342       0.12459610       0.67795022 </v>
   <v>       0.11885946       0.74924130       0.23460847 </v>
   <v>       0.27985874       0.76100554       0.77916089 </v>
   <v>       0.59282737       0.27502582       0.26130290 </v>
   <v>       0.88243060       0.24401249       0.75400062 </v>
   <v>       0.76146622       0.66747192       0.23642690 </v>
   <v>       0.76497654       0.72443329       0.72467891 </v>
  </varray>
  <varray name="velocities" >
   <v>      -0.00419648       0.00115332       0.00307679 </v>
   <v>       0.00448888      -0.00210069       0.00111178 </v>
   <v>       0.00275528       0.00200369      -0.00490352 </v>
   <v>       0.00009858      -0.00133821       0.00244568 </v>
   <v>      -0.00317466      -0.00019908       0.00337805 </v>
   <v>       0.00093892       0.00038860      -0.00012924 </v>
   <v>       0.00280075      -0.00123865       0.00169358 </v>
   <v>       0.00073686       0.00189474      -0.00050468 </v>
   <v>      -0.00125580       0.00349963      -0.00338603 </v>
   <v>      -0.00090674      -0.00061604       0.00119297 </v>
   <v>      -0.00074078      -0.00035592      -0.00043077 </v>
   <v>       0.00152086       0.00475579      -0.00134323 </v>
   <v>       0.00055209      -0.00114609       0.00037507 </v>
   <v>       0.00061535      -0.00328897      -0.00022462 </v>
   <v>      -0.00311511       0.00524372      -0.00024284 </v>
   <v>      -0.00138292       0.00098935      -0.00022572 </v>
   <v>      -0.00128942       0.00034712      -0.00378484 </v>
   <v>      -0.00224841       0.00046228      -0.00097000 </v>
   <v>      -0.00214252      -0.00269088      -0.00130206 </v>
   <v>       0.00242896       0.00159632       0.00101956 </v>
   <v>       0.00262691       0.00162608       0.00118411 </v>
   <v>      -0.00096492       0.00088346      -0.00382322 </v>
   <v>       0.00336210       0.00219577      -0.00235817 </v>
   <v>       0.00302075      -0.00104999      -0.00049591 </v>
   <v>       0.00020941      -0.00296112      -0.00047801 </v>
   <v>       0.00152234      -0.00166768       0.00070329 </v>
   <v>       0.00108011      -0.00075726      -0.00139123 </v>
   <v>      -0.00197731      -0.00072523      -0.00162370 </v>
   <v>      -0.00058278      -0.00267625      -0.00199794 </v>
   <v>      -0.00055036      -0.00266192       0.00082672 </v>
   <v>      -0.00170933      -0.00232323       0.00176188 </v>
   <v>       0.00002061      -0.00651118      -0.00088286 </v>
   <v>       0.00145259       0.00437814       0.00073708 </v>
   <v>      -0.00165134       0.00051322       0.00092136 </v>
   <v>       0.00299957       0.00023810       0.00034958 </v>
   <v>      -0.00177559      -0.00287550       0.00060108 </v>
   <v>       0.00004135       0.00139348       0.00298581 </v>
   <v>      -0.00014674       0.00000325       0.00322252 </v>
   <v>       0.00162671       0.00257000       0.00214398 </v>
   <v>       0.00066145       0.00331796      -0.00002785 </v>
   <v>      -0.00237873       0.00114743      -0.00193902 </v>
   <v>      -0.00027889       0.00408766       0.00101364 </v>
   <v>       0.00348988      -0.00181723       0.00195334 </v>
   <v>       0.00187332       0.00002513       0.00159469 </v>
   <v>       0.00184385       0.00050395       0.00383243 </v>
   <v>       0.00087401      -0.00297185       0.00205021 </v>
   <v>      -0.00272933      -0.00059675      -0.00355145 </v>
   <v>       0.00051851      -0.00210179      -0.00205059 </v>
   <v>      -0.00123159      -0.00074508       0.00146078 </v>
   <v>      -0.00013388       0.00158312      -0.00248636 </v>
   <v>      -0.00217172      -0.00160233      -0.00098951 </v>
   <v>      -0.00286820       0.00249237       0.00134089 </v>
   <v>       0.00005185      -0.00167532      -0.00118083 </v>
   <v>      -0.00483085      -0.00113669       0.00200715 </v>
   <v>      -0.00494941       0.00139568      -0.00270782 </v>
   <v>       0.00070409      -0.00413352       0.00121342 </v>
   <v>       0.00274512       0.00245901       0.00073230 </v>
   <v>       0.00158242      -0.00416681      -0.00086491 </v>
   <v>      -0.00149092      -0.00054246       0.00205325 </v>
   <v>       0.00376804      -0.00343222      -0.00321905 </v>
   <v>      -0.00406367       0.00391572       0.00119698 </v>
   <v>      -0.00036565       0.00112289       0.00009728 </v>
   <v>       0.00206016      -0.00039744       0.00162416 </v>
   <v>       0.00223235       0.00431644      -0.00238544 </v>
  </varray>
 </structure>
 <calculation>
  <scstep>
   <time name="diag">    3.52    0.09</time>
   <time name="diis">    3.93    0.10</time>
   <time name="orth">    0.36    0.01</time>
   <time name="total">    8.39    0.21</time>
   <energy>
    <i name="alphaZ">    105.38177171 </i>
    <i name="ewald">  -7126.69769741 </i>
    <i name="hartreedc">   -532.75335955 </i>
    <i name="XCdc">   -599.03336011 </i>
    <i name="pawpsdc">   5639.92317535 </i>
    <i name="pawaedc">  -4513.95313856 </i>
    <i name="eentropy">     -0.10303718 </i>
    <i name="bandstr">   1940.40032790 </i>
    <i name="atom">   6595.45443641 </i>
    <i name="e_fr_energy">   1508.61911857 </i>
    <i name="e_wo_entrp">   1508.72215575 </i>
    <i name="e_0_energy">   1508.67063716 </i>
   </energy>
  </scstep>
  <scstep>
   <time name="diag">    3.19    0.08</time>
   <time name="diis">    3.79    0.09</time>
   <time name="orth">    0.34    0.01</time>
   <time name="total">    7.34    0.18</time>
   <energy>
    <i name="e_fr_energy">    277.56953800 </i>
    <i name="e_wo_entrp">    277.56992618 </i>
    <i name="e_0_energy">    277.56973209 </i>
   </energy>
  </scstep>
  <scstep>
   <time name="diag">    3.13    0.08</time>
   <time name="diis">    3.75    0.09</time>
   <time name="orth">    0.35    0.01</time>
   <time name="total">    7.24    0.18</time>
   <energy>
    <i name="e_fr_energy">    -62.59596383 </i>
    <i name="e_wo_entrp">    -62.54877619 </i>
    <i name="e_0_energy">    -62.57237001 </i>
   </energy>
  </scstep>
  <scstep>
   <time name="diag">    3.15    0.08</time>
   <time name="diis">    3.77    0.09</time>
   <time name="orth">    0.35    0.01</time>
   <time name="total">    7.28    0.18</time>
   <energy>
    <i name="e_fr_energy">   -189.93078181 </i>
    <i name="e_wo_entrp">   -189.85696670 </i>
    <i name="e_0_energy">   -189.89387426 </i>
   </energy>
  </scstep>
  <scstep>
   <time name="diag">    3.21    0.08</time>
   <time name="diis">    3.97    0.10</time>
   <time name="orth">    0.36    0.01</time>
   <time name="total">    7.55    0.19</time>
   <energy>
    <i name="e_fr_energy">   -251.44748395 </i>
    <i name="e_wo_entrp">   -251.36326631 </i>
    <i name="e_0_energy">   -251.40537513 </i>
   </energy>
  </scstep>
  <scstep>
   <time name="diag">    3.12    0.08</time>
   <time name="diis">    3.73    0.09</time>
   <time name="orth">    0.35    0.01</time>
   <time name="total">    7.21    0.18</time>
   <energy>
    <i name="e_fr_energy">   -279.85016795 </i>
    <i name="e_wo_entrp">   -279.72942440 </i>
    <i name="e_0_energy">   -279.78979618 </i>
   </energy>
  </scstep>
  <scstep>
   <time name="diag">    3.13    0.08</time>
   <time name="diis">    3.74    0.09</time>
   <time name="orth">    0.34    0.01</time>
   <time name="total">    7.22    0.18</time>
   <energy>
    <i name="e_fr_energy">   -293.30991888 </i>
    <i name="e_wo_entrp">   -293.17880836 </i>
    <i name="e_0_energy">   -293.24436362 </i>
   </energy>
  </scstep>
  <scstep>
   <time name="diag">    3.12    0.08</time>
   <time name="diis">    3.75    0.09</time>
   <time name="orth">    0.35    0.01</time>
   <time name="total">    7.23    0.18</time>
   <energy>
    <i name="e_fr_energy">   -300.28496357 </i>
    <i name="e_wo_entrp">   -300.14946085 </i>
    <i name="e_0_energy">   -300.21721221 </i>
   </energy>
  </scstep>
  <scstep>
   <time name="diag">    3.12    0.08</time>
   <time name="diis">    7.49    0.19</time>
   <time name="orth">    0.35    0.01</time>
   <time name="total">   10.98    0.27</time>
   <energy>
    <i name="e_fr_energy">   -306.72477329 </i>
    <i name="e_wo_entrp">   -306.60931954 </i>
    <i name="e_0_energy">   -306.66704641 </i>
   </energy>
  </scstep>
  <scstep>
   <time name="diag">    3.35    0.08</time>
   <time name="diis">    7.33    0.18</time>
   <time name="orth">    0.36    0.01</time>
   <time name="total">   11.06    0.28</time>
   <energy>
    <i name="e_fr_energy">   -307.70015210 </i>
    <i name="e_wo_entrp">   -307.56096126 </i>
    <i name="e_0_energy">   -307.63055668 </i>
   </energy>
  </scstep>
  <scstep>
   <time name="diag">    3.22    0.08</time>
   <time name="diis">    7.43    0.19</time>
   <time name="orth">    0.35    0.01</time>
   <time name="total">   11.01    0.28</time>
   <energy>
    <i name="e_fr_energy">   -307.94748013 </i>
    <i name="e_wo_entrp">   -307.79021771 </i>
    <i name="e_0_energy">   -307.86884892 </i>
   </energy>
  </scstep>
  <scstep>
   <time name="diag">    3.20    0.08</time>
   <time name="diis">    7.15    0.18</time>
   <time name="orth">    0.35    0.01</time>
   <time name="total">   11.87    0.30</time>
   <energy>
    <i name="e_fr_energy">   -308.01375007 </i>
    <i name="e_wo_entrp">   -307.85489785 </i>
    <i name="e_0_energy">   -307.93432396 </i>
   </energy>
  </scstep>
  <scstep>
   <time name="diag">    3.22    0.08</time>
   <time name="diis">    9.87    0.25</time>
   <time name="orth">    0.37    0.01</time>
   <time name="total">   15.16    0.38</time>
   <energy>
    <i name="e_fr_energy">   -302.76503442 </i>
    <i name="e_wo_entrp">   -302.58782587 </i>
    <i name="e_0_energy">   -302.67643015 </i>
   </energy>
  </scstep>
  <scstep>
   <time name="diag">    3.20    0.08</time>
   <time name="diis">    8.68    0.22</time>
   <time name="orth">    0.35    0.01</time>
   <time name="total">   13.86    0.35</time>
   <energy>
    <i name="e_fr_energy">   -301.68438724 </i>
    <i name="e_wo_entrp">   -301.50337983 </i>
    <i name="e_0_energy">   -301.59388354 </i>
   </energy>
  </scstep>
  <scstep>
   <time name="diag">    3.19    0.08</time>
   <time name="diis">    6.80    0.17</time>
   <time name="orth">    0.35    0.01</time>
   <time name="total">   11.93    0.30</time>
   <energy>
    <i name="e_fr_energy">   -301.61358673 </i>
    <i name="e_wo_entrp">   -301.42810157 </i>
    <i name="e_0_energy">   -301.52084415 </i>
   </energy>
  </scstep>
  <scstep>
   <time name="diag">    3.20    0.08</time>
   <time name="diis">    6.79    0.17</time>
   <time name="orth">    0.35    0.01</time>
   <time name="total">   11.99    0.30</time>
   <energy>
    <i name="e_fr_energy">   -301.60986034 </i>
    <i name="e_wo_entrp">   -301.42423782 </i>
    <i name="e_0_energy">   -301.51704908 </i>
   </energy>
  </scstep>
  <scstep>
   <time name="diag">    3.21    0.08</time>
   <time name="diis">    6.65    0.17</time>
   <time name="orth">    0.35    0.01</time>
   <time name="total">   11.82    0.30</time>
   <energy>
    <i name="e_fr_energy">   -301.61143154 </i>
    <i name="e_wo_entrp">   -301.42589159 </i>
    <i name="e_0_energy">   -301.51866156 </i>
   </energy>
  </scstep>
  <scstep>
   <time name="diag">    3.20    0.08</time>
   <time name="diis">    6.91    0.17</time>
   <time name="orth">    0.35    0.01</time>
   <time name="total">   12.04    0.30</time>
   <energy>
    <i name="e_fr_energy">   -301.61249534 </i>
    <i name="e_wo_entrp">   -301.42706018 </i>
    <i name="e_0_energy">   -301.51977776 </i>
   </energy>
  </scstep>
  <scstep>
   <time name="diag">    3.23    0.08</time>
   <time name="diis">    6.65    0.17</time>
   <time name="orth">    0.35    0.01</time>
   <time name="total">   11.86    0.30</time>
   <energy>
    <i name="e_fr_energy">   -301.61270950 </i>
    <i name="e_wo_entrp">   -301.42710061 </i>
    <i name="e_0_energy">   -301.51990506 </i>
   </energy>
  </scstep>
  <scstep>
   <time name="diag">    3.34    0.08</time>
   <time name="diis">    4.81    0.12</time>
   <time name="orth">    0.35    0.01</time>
   <time name="total">    8.94    0.22</time>
   <energy>
    <i name="alphaZ">    105.38177171 </i>
    <i name="ewald">  -7126.69769741 </i>
    <i name="hartreedc">   -611.47669385 </i>
    <i name="XCdc">   -586.73884784 </i>
    <i name="pawpsdc">  31987.96529973 </i>
    <i name="pawaedc"> -30866.09309874 </i>
    <i name="eentropy">     -0.18558821 </i>
    <i name="bandstr">    200.77767261 </i>
    <i name="atom">   6595.45443641 </i>
    <i name="e_fr_energy">   -301.61274560 </i>
    <i name="e_wo_entrp">   -301.42715740 </i>
    <i name="e_0_energy">   -301.51995150 </i>
   </energy>
  </scstep>
  <structure>
   <crystal>
    <varray name="basis" >
     <v>      10.93745600       0.00000000       0.00000000 </v>
     <v>       0.00000000      10.93745600       0.00000000 </v>
     <v>       0.00000000       0.00000000      10.93745600 </v>
    </varray>
    <i name="volume">   1308.42537116 </i>
    <varray name="rec_basis" >
     <v>       0.09142894       0.00000000       0.00000000 </v>
     <v>       0.00000000       0.09142894       0.00000000 </v>
     <v>       0.00000000       0.00000000       0.09142894 </v>
    </varray>
   </crystal>
   <varray name="positions" >
    <v>       0.08421579       0.32816896       0.17672733 </v>
    <v>       0.16118440       0.34325767       0.64311829 </v>
    <v>       0.12551827       0.90887540       0.09236136 </v>
    <v>       0.12275086       0.87956258       0.63586956 </v>
    <v>       0.61684341       0.49850948       0.23722693 </v>
    <v>       0.65484450       0.32764759       0.65722351 </v>
    <v>       0.64753285       0.81448792       0.13946541 </v>
    <v>       0.64516523       0.87637249       0.57873934 </v>
    <v>       0.97515658       0.04210274       0.18612437 </v>
    <v>       0.98075903       0.02630815       0.74000131 </v>
    <v>       0.01398114       0.48215465       0.29226156 </v>
    <v>       0.11085854       0.47855945       0.80087009 </v>
    <v>       0.50805114       0.93683313       0.28587845 </v>
    <v>       0.55911434       0.99745642       0.70462744 </v>
    <v>       0.43645534       0.61155060       0.28315575 </v>
    <v>       0.49624836       0.43556197       0.79782874 </v>
    <v>       0.11578064       0.12740099       0.30937071 </v>
    <v>       0.02794869       0.09378216       0.94025736 </v>
    <v>       0.06768654       0.56543015       0.48603961 </v>
    <v>       0.15419352       0.65760279       0.92150244 </v>
    <v>       0.56503542       0.09974599       0.39983731 </v>
    <v>       0.67745003       0.14708336       0.80186995 </v>
    <v>       0.74357357       0.69706308       0.43034873 </v>
    <v>       0.63301624       0.56195784       0.01412862 </v>
    <v>       0.95137083       0.26647021       0.03708890 </v>
    <v>       0.04582050       0.28696960       0.44687776 </v>
    <v>       0.95408542       0.78785684       0.95101811 </v>
    <v>       0.98152387       0.78157703       0.45791103 </v>
    <v>       0.47053673       0.12173583       0.89633270 </v>
    <v>       0.52617444       0.25818805       0.52122465 </v>
    <v>       0.46324548       0.77773144       0.02123898 </v>
    <v>       0.47258716       0.74534247       0.48489820 </v>
    <v>       0.39655974       0.40293241       0.39459732 </v>
    <v>       0.32591618       0.30079474       0.85775218 </v>
    <v>       0.30656174       0.81558127       0.26745660 </v>
    <v>       0.38437507       0.93745525       0.83117585 </v>
    <v>       0.81219185       0.42305639       0.33647298 </v>
    <v>       0.93132901       0.40479874       0.88947793 </v>
    <v>       0.86618249       0.88857627       0.29347940 </v>
    <v>       0.83488195       0.90971186       0.82707874 </v>
    <v>       0.25244499       0.04030745       0.99205985 </v>
    <v>       0.22329481       0.01068826       0.46678057 </v>
    <v>       0.27574099       0.41288846       0.03449905 </v>
    <v>       0.27313095       0.51226201       0.58011019 </v>
    <v>       0.76786766       0.99330000       0.05280218 </v>
    <v>       0.75936097       0.03308213       0.42498245 </v>
    <v>       0.83485884       0.60732850       0.88901143 </v>
    <v>       0.79298368       0.48638129       0.51662155 </v>
    <v>       0.47797935       0.13034559       0.18494706 </v>
    <v>       0.35969933       0.11509045       0.57154815 </v>
    <v>       0.29063903       0.65575392       0.11637022 </v>
    <v>       0.40860094       0.60505378       0.69131072 </v>
    <v>       0.74656198       0.22509597       0.08283801 </v>
    <v>       0.94060890       0.13890335       0.57381563 </v>
    <v>       0.92322398       0.62746959       0.11848763 </v>
    <v>       0.93341591       0.58208967       0.67954389 </v>
    <v>       0.31386846       0.23191915       0.28722703 </v>
    <v>       0.17859342       0.12459610       0.67795022 </v>
    <v>       0.11885946       0.74924130       0.23460847 </v>
    <v>       0.27985874       0.76100554       0.77916089 </v>
    <v>       0.59282737       0.27502582       0.26130290 </v>
    <v>       0.88243060       0.24401249       0.75400062 </v>
    <v>       0.76146622       0.66747192       0.23642690 </v>
    <v>       0.76497654       0.72443329       0.72467891 </v>
   </varray>
  </structure>
  <varray name="forces" >
   <v>       2.74764283      -0.47535580       0.19924529 </v>
   <v>       0.33652268      -0.79891561      -0.30313464 </v>
   <v>      -1.07499401      -0.35555194      -0.33340245 </v>
   <v>      -0.27723539      -0.15849569      -0.67662102 </v>
   <v>       0.03733191      -0.22801623      -0.88526699 </v>
   <v>       0.90528615       1.53184663       1.88608707 </v>
   <v>      -0.82319964       1.72597501      -0.37005836 </v>
   <v>       1.73796161      -2.53889367      -2.69529943 </v>
   <v>      -1.29463674      -1.09879838      -1.81223024 </v>
   <v>       1.22137828      -0.75737187      -0.10024825 </v>
   <v>      -0.59693753       0.77208072       0.08246614 </v>
   <v>      -0.51816761       0.17914035       0.39314930 </v>
   <v>      -0.62511834      -1.35740559      -1.14330110 </v>
   <v>      -1.82393653       1.47433028       0.85723074 </v>
   <v>       0.25712886      -0.30288950       1.19925198 </v>
   <v>       0.80698220      -0.14698486       0.00942489 </v>
   <v>       1.27131172       1.58670262       0.92996731 </v>
   <v>       0.91235803      -0.26909014       0.38716227 </v>
   <v>       0.06455702       0.94999645       0.11751429 </v>
   <v>      -0.25686080       0.59595522       0.51717036 </v>
   <v>       0.41899087       0.07349470       0.08872599 </v>
   <v>       0.57100888       0.95203208       0.37319708 </v>
   <v>      -0.03525192       0.20846678       3.35585181 </v>
   <v>      -0.05701986       0.20701304      -0.61823077 </v>
   <v>      -0.86817445      -0.88618279       0.58491337 </v>
   <v>       0.02179167       0.11256643       0.42838765 </v>
   <v>       1.53426019      -1.23235114       1.24669725 </v>
   <v>       0.46325614      -0.89853894       0.70522769 </v>
   <v>      -0.02673069       1.38062905       1.26564684 </v>
   <v>      -2.46709297       0.67412201      -0.70717613 </v>
   <v>      -0.18151967      -0.36199882      -0.15532745 </v>
   <v>       0.71738987      -0.62709715      -0.05027698 </v>
   <v>      -0.17957196       0.58402079       0.51286122 </v>
   <v>       0.50866453       0.03380578      -0.46107218 </v>
   <v>       2.17777171       1.13253348       1.00604032 </v>
   <v>       0.30739540      -0.64339376       1.13418567 </v>
   <v>       0.16853061      -1.05891825      -2.70570048 </v>
   <v>      -0.27271512       1.38737171      -1.28354836 </v>
   <v>      -0.29034283       0.43975959       0.08191054 </v>
   <v>      -1.59235818      -0.35287951       0.80273480 </v>
   <v>       0.20903061       0.57218321      -0.64695670 </v>
   <v>      -1.14607378      -1.44891145      -0.43411604 </v>
   <v>      -0.80813240       0.01085368       1.26221571 </v>
   <v>      -1.22411811      -1.60942927      -2.40738716 </v>
   <v>       0.28577141      -0.18582566      -0.02959549 </v>
   <v>       1.42148047      -1.06197882       1.33277704 </v>
   <v>      -0.94686864      -0.87588610       1.70693264 </v>
   <v>      -0.69947149       1.10429123       4.49286501 </v>
   <v>      -1.58003343      -1.61327876      -1.49746458 </v>
   <v>       2.53953793       0.67907959       0.74303531 </v>
   <v>       0.14764330      -0.64082453      -1.50952319 </v>
   <v>       1.21407242       1.76272416       0.22768961 </v>
   <v>      -0.92400534      -1.10863026       0.09343666 </v>
   <v>      -0.97331073       0.60060407      -1.65430098 </v>
   <v>       1.63953451       0.36277403      -0.87235107 </v>
   <v>       0.24296298      -0.48358789      -0.93391871 </v>
   <v>      -0.53195273       0.33560258      -0.36395217 </v>
   <v>      -0.41013895       0.50895748      -0.05753762 </v>
   <v>      -1.69708403      -1.09664482       0.15186479 </v>
   <v>      -0.61055940      -0.03534028      -0.93764989 </v>
   <v>       1.72983360       1.87599280      -0.22541546 </v>
   <v>      -1.10321178      -0.04591833       0.01189251 </v>
   <v>      -0.47704488       0.15836914      -1.57361851 </v>
   <v>      -0.19000442       0.83415869      -0.87239782 </v>
  </varray>
  <varray name="stress" >
   <v>     -23.92720982       9.75766969      -0.55792425 </v>
   <v>       9.75766974     -14.01428969      20.18957529 </v>
   <v>      -0.55792422      20.18957549       3.76933120 </v>
  </varray>
  <energy>
   <i name="e_fr_energy">   -301.61274560 </i>
   <i name="e_wo_entrp">   -301.42715740 </i>
   <i name="e_0_energy">   -301.51995150 </i>
   <i name="kinetic">     18.30838103 </i>
   <i name="lattice kinetic">      0.00000000 </i>
   <i name="nosepot">    -39.89123756 </i>
   <i name="nosekinetic">      0.68107616 </i>
   <i name="total">   -322.51452597 </i>
  </energy>
  <time name="totalsc">  232.16    5.89</time>
 </calculation>
 <calculation>
  <scstep>
   <time name="diag">    3.24    0.08</time>
   <time name="diis">    6.45    0.16</time>
   <time name="orth">    0.37    0.01</time>
   <time name="total">   11.61    0.29</time>
   <energy>
    <i name="alphaZ">    105.38177171 </i>
    <i name="ewald">  -7120.12125076 </i>
    <i name="hartreedc">   -616.36777039 </i>
    <i name="XCdc">   -586.63105450 </i>
    <i name="pawpsdc">  31977.51409066 </i>
    <i name="pawaedc"> -30855.64222379 </i>
    <i name="eentropy">     -0.15825359 </i>
    <i name="bandstr">    199.54196872 </i>
    <i name="atom">   6595.45443641 </i>
    <i name="e_fr_energy">   -301.02828553 </i>
    <i name="e_wo_entrp">   -300.87003195 </i>
    <i name="e_0_energy">   -300.94915874 </i>
   </energy>
  </scstep>
  <scstep>
   <time name="diag">    3.22    0.08</time>
   <time name="diis">    6.61    0.17</time>
   <time name="orth">    0.38    0.01</time>
   <time name="total">   11.81    0.30</time>
   <energy>
    <i name="e_fr_energy">   -301.23337246 </i>
    <i name="e_wo_entrp">   -301.06787418 </i>
    <i name="e_0_energy">   -301.15062332 </i>
   </energy>
  </scstep>
  <scstep>
   <time name="diag">    3.23    0.08</time>
   <time name="diis">    6.97    0.17</time>
   <time name="orth">    0.35    0.01</time>
   <time name="total">   12.15    0.30</time>
   <energy>
    <i name="e_fr_energy">   -301.27654416 </i>
    <i name="e_wo_entrp">   -301.11044096 </i>
    <i name="e_0_energy">   -301.19349256 </i>
   </energy>
  </scstep>
  <scstep>
   <time name="diag">    3.20    0.08</time>
   <time name="diis">    6.80    0.17</time>
   <time name="orth">    0.36    0.01</time>
   <time name="total">   11.94    0.30</time>
   <energy>
    <i name="e_fr_energy">   -301.27091274 </i>
    <i name="e_wo_entrp">   -301.10402972 </i>
    <i name="e_0_energy">   -301.18747123 </i>
   </energy>
  </scstep>
  <scstep>
   <time name="diag">    3.22    0.08</time>
   <time name="diis">    6.45    0.16</time>
   <time name="orth">    0.35    0.01</time>
   <time name="total">   11.59    0.29</time>
   <energy>
    <i name="e_fr_energy">   -301.27265799 </i>
    <i name="e_wo_entrp">   -301.10551356 </i>
    <i name="e_0_energy">   -301.18908578 </i>
   </energy>
  </scstep>
  <scstep>
   <time name="diag">    3.22    0.08</time>
   <time name="diis">    6.41    0.16</time>
   <time name="orth">    0.35    0.01</time>
   <time name="total">   11.66    0.29</time>
   <energy>
    <i name="e_fr_energy">   -301.27048632 </i>
    <i name="e_wo_entrp">   -301.10317492 </i>
    <i name="e_0_energy">   -301.18683062 </i>
   </energy>
  </scstep>
  <scstep>
   <time name="diag">    3.26    0.08</time>
   <time name="diis">    6.60    0.17</time>
   <time name="orth">    0.35    0.01</time>
   <time name="total">   11.83    0.30</time>
   <energy>
    <i name="e_fr_energy">   -301.27057384 </i>
    <i name="e_wo_entrp">   -301.10340788 </i>
    <i name="e_0_energy">   -301.18699086 </i>
   </energy>
  </scstep>
  <scstep>
   <time name="diag">    3.21    0.08</time>
   <time name="diis">    5.75    0.14</time>
   <time name="orth">    0.36    0.01</time>
   <time name="total">    9.77    0.24</time>
   <energy>
    <i name="alphaZ">    105.38177171 </i>
    <i name="ewald">  -7120.12125076 </i>
    <i name="hartreedc">   -616.69238861 </i>
    <i name="XCdc">   -586.61071168 </i>
    <i name="pawpsdc">  32033.08879771 </i>
    <i name="pawaedc"> -30911.24694301 </i>
    <i name="eentropy">     -0.16716157 </i>
    <i name="bandstr">    199.64283238 </i>
    <i name="atom">   6595.45443641 </i>
    <i name="e_fr_energy">   -301.27061741 </i>
    <i name="e_wo_entrp">   -301.10345584 </i>
    <i name="e_0_energy">   -301.18703663 </i>
   </energy>
  </scstep>
  <structure>
   <crystal>
    <varray name="basis" >
     <v>      10.93745600       0.00000000       0.00000000 </v>
     <v>       0.00000000      10.93745600       0.00000000 </v>
     <v>       0.00000000       0.00000000      10.93745600 </v>
    </varray>
    <i name="volume">   1308.42537116 </i>
    <varray name="rec_basis" >
     <v>       0.09142894       0.00000000       0.00000000 </v>
     <v>       0.00000000       0.09142894       0.00000000 </v>
     <v>       0.00000000       0.00000000       0.09142894 </v>
    </varray>
   </crystal>
   <varray name="positions" >
    <v>       0.08067424       0.32922237       0.17996022 </v>
    <v>       0.16591319       0.34086018       0.64417911 </v>
    <v>       0.12805268       0.91084076       0.08720602 </v>
    <v>       0.12277282       0.87813587       0.63819963 </v>
    <v>       0.61357790       0.49823832       0.24045922 </v>
    <v>       0.65607327       0.32848833       0.65763241 </v>
    <v>       0.65018650       0.81370517       0.14110740 </v>
    <v>       0.64642463       0.87759834       0.57744501 </v>
    <v>       0.97348868       0.04539836       0.18211026 </v>
    <v>       0.98017396       0.02545467       0.74120418 </v>
    <v>       0.01304510       0.48200888       0.29184130 </v>
    <v>       0.11227901       0.48351839       0.79959744 </v>
    <v>       0.50844118       0.93526034       0.28593771 </v>
    <v>       0.55922535       0.99448558       0.70464243 </v>
    <v>       0.43331441       0.61687461       0.28325017 </v>
    <v>       0.49505288       0.43654048       0.79759910 </v>
    <v>       0.11481500       0.12821467       0.30573263 </v>
    <v>       0.02589034       0.09418169       0.93936814 </v>
    <v>       0.06549396       0.56292591       0.48473028 </v>
    <v>       0.15662616       0.65942103       0.92270369 </v>
    <v>       0.56786644       0.10144490       0.40108531 </v>
    <v>       0.67661813       0.14826824       0.79803235 </v>
    <v>       0.74703280       0.69938863       0.42887963 </v>
    <v>       0.63611697       0.56093353       0.01343988 </v>
    <v>       0.95133743       0.26315973       0.03676419 </v>
    <v>       0.04739758       0.28528074       0.44772713 </v>
    <v>       0.95564054       0.78672121       0.94994107 </v>
    <v>       0.97961629       0.78057033       0.45643859 </v>
    <v>       0.46992750       0.11937037       0.89463501 </v>
    <v>       0.52489778       0.25563446       0.52187525 </v>
    <v>       0.46142925       0.77522979       0.02301312 </v>
    <v>       0.47281432       0.73844293       0.48397328 </v>
    <v>       0.39800701       0.40761792       0.39550583 </v>
    <v>       0.32435803       0.30133383       0.85857113 </v>
    <v>       0.31028246       0.81615202       0.26810687 </v>
    <v>       0.38263090       0.93430286       0.83212246 </v>
    <v>       0.81228277       0.42419002       0.33877766 </v>
    <v>       0.93109911       0.40520032       0.89243533 </v>
    <v>       0.86777763       0.89135444       0.29571598 </v>
    <v>       0.83510705       0.91303423       0.82728114 </v>
    <v>       0.25005015       0.04165564       0.98987365 </v>
    <v>       0.22267770       0.01449014       0.46770249 </v>
    <v>       0.27911011       0.41101606       0.03687789 </v>
    <v>       0.27471239       0.51182547       0.58106498 </v>
    <v>       0.76985234       0.99376645       0.05674912 </v>
    <v>       0.76067101       0.02971010       0.42748153 </v>
    <v>       0.83177022       0.60646089       0.88583734 </v>
    <v>       0.79331771       0.48452928       0.51579642 </v>
    <v>       0.47625447       0.12911313       0.18602501 </v>
    <v>       0.36029040       0.11691895       0.56919634 </v>
    <v>       0.28844018       0.65391612       0.11491614 </v>
    <v>       0.40598965       0.60813181       0.69276042 </v>
    <v>       0.74634995       0.22304848       0.08164687 </v>
    <v>       0.93534402       0.13790261       0.57541236 </v>
    <v>       0.91858719       0.62901381       0.11544334 </v>
    <v>       0.93421212       0.57768497       0.68052843 </v>
    <v>       0.31654834       0.23455288       0.28787877 </v>
    <v>       0.18010845       0.12044211       0.67704174 </v>
    <v>       0.11683335       0.74836631       0.23677151 </v>
    <v>       0.28357165       0.75745328       0.77557028 </v>
    <v>       0.58913054       0.27960520       0.26247396 </v>
    <v>       0.88173627       0.24515783       0.75410501 </v>
    <v>       0.76345504       0.66710703       0.23765157 </v>
    <v>       0.76722549       0.72912697       0.72196728 </v>
   </varray>
  </structure>
  <varray name="forces" >
   <v>       2.65205985      -1.00075222      -0.30716462 </v>
   <v>       0.23868940      -0.72128690      -0.03477110 </v>
   <v>      -1.53998967      -0.93648184       0.42576769 </v>
   <v>      -0.29046945      -0.17481940      -0.86622575 </v>
   <v>       0.17210071       0.20870419      -0.95836754 </v>
   <v>       0.53435774       1.47072916       1.53381056 </v>
   <v>      -1.07958979       1.74645208      -0.40960014 </v>
   <v>       1.72429938      -2.74545163      -2.83510175 </v>
   <v>      -1.29325526      -1.34292598      -1.72310153 </v>
   <v>       1.57577060      -0.49578944      -0.42554685 </v>
   <v>      -0.76665705       1.16489822       0.16213863 </v>
   <v>      -0.75789542      -0.19905930       0.31980014 </v>
   <v>      -0.49207453      -0.94552681      -0.97271590 </v>
   <v>      -1.94698345       1.56585219       1.07949237 </v>
   <v>       0.54074843      -0.47617730       1.19556732 </v>
   <v>       0.80336190      -0.12812154       0.01456828 </v>
   <v>       1.45427317       1.61854307       1.02468364 </v>
   <v>       1.09354404      -0.48529827       0.30912892 </v>
   <v>       0.23725651       0.95381979       0.29245433 </v>
   <v>      -0.27893113       0.63885725       0.36959647 </v>
   <v>       0.45359293      -0.41850210      -0.51140228 </v>
   <v>       0.50599643       0.80548375       0.47047557 </v>
   <v>      -0.01621980       0.19639101       3.79798614 </v>
   <v>      -0.18440998       0.17699858      -0.51650635 </v>
   <v>      -0.79020172      -0.50900073       0.87206750 </v>
   <v>       0.03517606      -0.01459825       0.51373714 </v>
   <v>       1.33392164      -1.20451784       1.08341274 </v>
   <v>       0.58717629      -0.90723821       0.83128339 </v>
   <v>      -0.07551570       1.44640014       1.23632193 </v>
   <v>      -2.12359770       1.25097326      -0.25591196 </v>
   <v>       0.02921739      -0.24079818      -0.06909171 </v>
   <v>       0.82875933      -0.37919392       0.06609483 </v>
   <v>      -0.14640289       0.34912610       0.42882948 </v>
   <v>       0.60006609      -0.05555917      -0.60131571 </v>
   <v>       1.47993852       0.86121303       0.72839680 </v>
   <v>       0.50399865      -0.46277196       1.13890484 </v>
   <v>       0.16062867      -1.27619380      -3.60281392 </v>
   <v>       0.00692361       1.41015138      -1.56822511 </v>
   <v>      -0.20054662       0.38308646      -0.22164649 </v>
   <v>      -1.78717986      -0.73685065       1.10928562 </v>
   <v>       0.54511998       0.90893946      -0.92140742 </v>
   <v>      -1.35892871      -1.57529362      -0.65130210 </v>
   <v>      -0.79526584       0.04873875       1.43952483 </v>
   <v>      -1.44138513      -1.63543706      -2.51855443 </v>
   <v>       0.21644410      -0.24503952      -0.13384577 </v>
   <v>       1.26305170      -0.79822696       1.39814076 </v>
   <v>      -0.87416922      -0.72449701       1.61620690 </v>
   <v>      -0.75399677       1.42793854       5.43255300 </v>
   <v>      -1.12579524      -1.33903985      -1.29188901 </v>
   <v>       2.48524056       0.67494951       0.90026981 </v>
   <v>       0.00802471      -0.64602551      -1.37513441 </v>
   <v>       1.81770780       1.10466470      -0.02332151 </v>
   <v>      -1.04511338      -1.02806309       0.19616404 </v>
   <v>      -0.83085034       0.67171158      -1.75703319 </v>
   <v>       1.99226356       0.24825581      -1.07134327 </v>
   <v>       0.08874053      -0.28617827      -0.97322273 </v>
   <v>      -0.64094693       0.35825209      -0.21001934 </v>
   <v>      -0.50094613       0.52533706      -0.03389298 </v>
   <v>      -1.06794866      -0.53835277      -0.12155341 </v>
   <v>      -1.24621226       0.49750074      -0.47238430 </v>
   <v>       1.47948462       1.22456836      -0.28651167 </v>
   <v>      -1.02852515       0.04994761       0.14194942 </v>
   <v>      -0.87888698      -0.04664615      -1.73250102 </v>
   <v>      -0.04041862       0.69797954      -0.81231358 </v>
  </varray>
  <varray name="stress" >
   <v>     -25.24731649       6.66075900      -3.41363559 </v>
   <v>       6.66075919     -11.95126370      23.47083758 </v>
   <v>      -3.41363548      23.47083725       7.18584998 </v>
  </varray>
  <energy>
   <i name="e_fr_energy">   -301.27061741 </i>
   <i name="e_wo_entrp">   -301.10345584 </i>
   <i name="e_0_energy">   -301.18703663 </i>
   <i name="kinetic">     19.07478487 </i>
   <i name="lattice kinetic">      0.00000000 </i>
   <i name="nosepot">    -40.85613487 </i>
   <i name="nosekinetic">      0.53230707 </i>
   <i name="total">   -322.51966035 </i>
  </energy>
  <time name="totalsc">  115.99    2.90</time>
 </calculation>
 <calculation>
  <scstep>
   <time name="diag">    3.22    0.08</time>
   <time name="diis">    6.49    0.16</time>
   <time name="orth">    0.35    0.01</time>
   <time name="total">   11.73    0.29</time>
   <energy>
    <i name="alphaZ">    105.38177171 </i>
    <i name="ewald">  -7113.88829949 </i>
    <i name="hartreedc">   -622.14858737 </i>
    <i name="XCdc">   -586.42056464 </i>
    <i name="pawpsdc">  32118.18885035 </i>
    <i name="pawaedc"> -30996.37810518 </i>
    <i name="eentropy">     -0.14815296 </i>
    <i name="bandstr">    198.99940689 </i>
    <i name="atom">   6595.45443641 </i>
    <i name="e_fr_energy">   -300.95924428 </i>
    <i name="e_wo_entrp">   -300.81109132 </i>
    <i name="e_0_energy">   -300.88516780 </i>
   </energy>
  </scstep>
  <scstep>
   <time name="diag">    3.20    0.08</time>
   <time name="diis">    6.78    0.17</time>
   <time name="orth">    0.35    0.01</time>
   <time name="total">   11.89    0.30</time>
   <energy>
    <i name="e_fr_energy">   -300.97460245 </i>
    <i name="e_wo_entrp">   -300.82687704 </i>
    <i name="e_0_energy">   -300.90073974 </i>
   </energy>
  </scstep>
  <scstep>
   <time name="diag">    3.23    0.08</time>
   <time name="diis">    7.15    0.18</time>
   <time name="orth">    0.35    0.01</time>
   <time name="total">   12.32    0.31</time>
   <energy>
    <i name="e_fr_energy">   -300.97742950 </i>
    <i name="e_wo_entrp">   -300.82993590 </i>
    <i name="e_0_energy">   -300.90368270 </i>
   </energy>
  </scstep>
  <scstep>
   <time name="diag">    3.21    0.08</time>
   <time name="diis">    6.59    0.16</time>
   <time name="orth">    0.35    0.01</time>
   <time name="total">   11.72    0.29</time>
   <energy>
    <i name="e_fr_energy">   -300.97718685 </i>
    <i name="e_wo_entrp">   -300.82937168 </i>
    <i name="e_0_energy">   -300.90327926 </i>
   </energy>
  </scstep>
  <scstep>
   <time name="diag">    3.20    0.08</time>
   <time name="diis">    6.53    0.16</time>
   <time name="orth">    0.35    0.01</time>
   <time name="total">   11.65    0.29</time>
   <energy>
    <i name="e_fr_energy">   -300.97725655 </i>
    <i name="e_wo_entrp">   -300.82956381 </i>
    <i name="e_0_energy">   -300.90341018 </i>
   </energy>
  </scstep>
  <scstep>
   <time name="diag">    3.31    0.08</time>
   <time name="diis">    5.09    0.13</time>
   <time name="orth">    0.37    0.01</time>
   <time name="total">    9.20    0.23</time>
   <energy>
    <i name="alphaZ">    105.38177171 </i>
    <i name="ewald">  -7113.88829949 </i>
    <i name="hartreedc">   -621.52587000 </i>
    <i name="XCdc">   -586.49662392 </i>
    <i name="pawpsdc">  32086.94798596 </i>
    <i name="pawaedc"> -30965.12791651 </i>
    <i name="eentropy">     -0.14764485 </i>
    <i name="bandstr">    198.42491721 </i>
    <i name="atom">   6595.45443641 </i>
    <i name="e_fr_energy">   -300.97724350 </i>
    <i name="e_wo_entrp">   -300.82959864 </i>
    <i name="e_0_energy">   -300.90342107 </i>
   </energy>
  </scstep>
  <structure>
   <crystal>
    <varray name="basis" >
     <v>      10.93745600       0.00000000       0.00000000 </v>
     <v>       0.00000000      10.93745600       0.00000000 </v>
     <v>       0.00000000       0.00000000      10.93745600 </v>
    </varray>
    <i name="volume">   1308.42537116 </i>
    <varray name="rec_basis" >
     <v>       0.09142894       0.00000000       0.00000000 </v>
     <v>       0.00000000       0.09142894       0.00000000 </v>
     <v>       0.00000000       0.00000000       0.09142894 </v>
    </varray>
   </crystal>
   <varray name="positions" >
    <v>       0.07779291       0.33001873       0.18319681 </v>
    <v>       0.17084349       0.33818848       0.64526048 </v>
    <v>       0.13021684       0.91259320       0.08202801 </v>
    <v>       0.12271191       0.87661897       0.64034767 </v>
    <v>       0.61026946       0.49801950       0.24350851 </v>
    <v>       0.65748965       0.32977455       0.65849317 </v>
    <v>       0.65260524       0.81340118       0.14267886 </v>
    <v>       0.64821364       0.87807184       0.57530204 </v>
    <v>       0.97140280       0.04840204       0.17748963 </v>
    <v>       0.98002392       0.02443515       0.74231958 </v>
    <v>       0.01186267       0.48219309       0.29145628 </v>
    <v>       0.11352204       0.48856021       0.79838121 </v>
    <v>       0.50870093       0.93337229       0.28572041 </v>
    <v>       0.55878112       0.99188003       0.70496792 </v>
    <v>       0.43023974       0.62221236       0.28369060 </v>
    <v>       0.49405378       0.43751000       0.79736777 </v>
    <v>       0.11423883       0.12951544       0.30228636 </v>
    <v>       0.02408723       0.09445351       0.93854310 </v>
    <v>       0.06330737       0.56062466       0.48346850 </v>
    <v>       0.15904719       0.66147383       0.92404536 </v>
    <v>       0.57090709       0.10307187       0.40222250 </v>
    <v>       0.67590761       0.14971758       0.79422206 </v>
    <v>       0.75058469       0.70183619       0.42845852 </v>
    <v>       0.63925203       0.55993123       0.01258428 </v>
    <v>       0.95107634       0.25961016       0.03668095 </v>
    <v>       0.04902899       0.28354023       0.44874834 </v>
    <v>       0.95762168       0.78520842       0.94914488 </v>
    <v>       0.97782305       0.77927531       0.45516355 </v>
    <v>       0.46927923       0.11735302       0.89324451 </v>
    <v>       0.52297614       0.25336766       0.52247145 </v>
    <v>       0.45956998       0.77258873       0.02481809 </v>
    <v>       0.47328525       0.73124034       0.48304184 </v>
    <v>       0.39945290       0.41253576       0.39656349 </v>
    <v>       0.32292776       0.30187235       0.85924140 </v>
    <v>       0.31453212       0.81698589       0.26898490 </v>
    <v>       0.38098182       0.93092909       0.83342286 </v>
    <v>       0.81242208       0.42498990       0.34011508 </v>
    <v>       0.93086450       0.40601763       0.89502715 </v>
    <v>       0.86936003       0.89432090       0.29795268 </v>
    <v>       0.83482593       0.91623918       0.82780786 </v>
    <v>       0.24774385       0.04330255       0.98736229 </v>
    <v>       0.22165339       0.01794775       0.46846430 </v>
    <v>       0.28234601       0.40910499       0.03973708 </v>
    <v>       0.27592499       0.51090792       0.58132529 </v>
    <v>       0.77195481       0.99417595       0.06076958 </v>
    <v>       0.76237985       0.02601431       0.43045248 </v>
    <v>       0.82834371       0.60536128       0.88303771 </v>
    <v>       0.79344479       0.48303457       0.51650602 </v>
    <v>       0.47415801       0.12746220       0.18676361 </v>
    <v>       0.36161038       0.11899264       0.56703694 </v>
    <v>       0.28618143       0.65184146       0.11302746 </v>
    <v>       0.40382563       0.61161344       0.69424492 </v>
    <v>       0.74583212       0.22064871       0.08047901 </v>
    <v>       0.92969232       0.13706636       0.57655102 </v>
    <v>       0.91439059       0.63067289       0.11200671 </v>
    <v>       0.93505600       0.57307420       0.68126233 </v>
    <v>       0.31911981       0.23736370       0.28848929 </v>
    <v>       0.18152237       0.11632177       0.67609854 </v>
    <v>       0.11444374       0.74731247       0.23896131 </v>
    <v>       0.28703176       0.75394366       0.77174364 </v>
    <v>       0.58575342       0.28466488       0.26359652 </v>
    <v>       0.88072729       0.24634992       0.75425365 </v>
    <v>       0.76524774       0.66671863       0.23841471 </v>
    <v>       0.76952603       0.73415321       0.71894695 </v>
   </varray>
  </structure>
  <varray name="forces" >
   <v>       2.52881277      -1.45812599      -0.84369032 </v>
   <v>       0.12917623      -0.63702693       0.22013109 </v>
   <v>      -1.96094824      -1.44135294       1.00635961 </v>
   <v>      -0.30831377      -0.22650472      -0.98629020 </v>
   <v>       0.28250373       0.72851427      -0.98675641 </v>
   <v>       0.11891242       1.38756005       1.13549422 </v>
   <v>      -1.26611422       1.76056409      -0.42396677 </v>
   <v>       1.52254724      -2.73554842      -2.64805788 </v>
   <v>      -1.17076094      -1.46662115      -1.42751125 </v>
   <v>       1.86895654      -0.23940406      -0.78091188 </v>
   <v>      -0.87741274       1.50943948       0.20520954 </v>
   <v>      -0.86506930      -0.60585472       0.24616084 </v>
   <v>      -0.31476934      -0.54780111      -0.79553277 </v>
   <v>      -1.88377249       1.46690659       1.08340172 </v>
   <v>       0.80160739      -0.74506498       1.12273366 </v>
   <v>       0.78387957      -0.09245146       0.01632396 </v>
   <v>       1.49950058       1.53686863       1.05479052 </v>
   <v>       1.27309795      -0.72364783       0.17345283 </v>
   <v>       0.41063314       0.95251907       0.46847506 </v>
   <v>      -0.32800837       0.66690287       0.14599877 </v>
   <v>       0.54430103      -0.85687701      -1.06872248 </v>
   <v>       0.44583519       0.62382416       0.56972255 </v>
   <v>       0.02359038       0.15391544       3.88929001 </v>
   <v>      -0.34370318       0.15894199      -0.41221385 </v>
   <v>      -0.71248534       0.04346373       1.12743493 </v>
   <v>       0.03465929      -0.11510902       0.55829719 </v>
   <v>       1.11016989      -1.11522260       0.88352648 </v>
   <v>       0.73097669      -0.90010585       0.95833783 </v>
   <v>      -0.12622640       1.47593951       1.18505822 </v>
   <v>      -1.62917322       1.88009062       0.18791364 </v>
   <v>       0.20928670      -0.09876166      -0.02258349 </v>
   <v>       0.88399092      -0.11121276       0.20831057 </v>
   <v>      -0.11189617       0.15359454       0.34670238 </v>
   <v>       0.65571194      -0.11384543      -0.69394415 </v>
   <v>       0.74774870       0.65429970       0.48657742 </v>
   <v>       0.67656531      -0.27357181       1.15730454 </v>
   <v>       0.04804737      -1.31976353      -3.94913183 </v>
   <v>       0.20653291       1.29504457      -1.68623965 </v>
   <v>      -0.08455450       0.25583615      -0.52527717 </v>
   <v>      -1.92354198      -1.05509585       1.39004873 </v>
   <v>       0.89807198       1.25365483      -1.17891702 </v>
   <v>      -1.41819629      -1.60108781      -0.79275498 </v>
   <v>      -0.79324221       0.06489521       1.54567500 </v>
   <v>      -1.45308410      -1.51517597      -2.45097012 </v>
   <v>       0.09976217      -0.31261781      -0.29013165 </v>
   <v>       0.98522695      -0.41880291       1.43098180 </v>
   <v>      -0.78443690      -0.52536370       1.42887952 </v>
   <v>      -0.76199879       1.52848549       5.75675892 </v>
   <v>      -0.66874675      -0.97850730      -1.04219517 </v>
   <v>       2.16601663       0.47901915       0.99395178 </v>
   <v>      -0.07235084      -0.65039459      -1.14444439 </v>
   <v>       2.56551099      -0.03648238      -0.55070870 </v>
   <v>      -1.14485538      -0.91781585       0.26502018 </v>
   <v>      -0.62823231       0.67257925      -1.71755599 </v>
   <v>       2.25405418       0.13419576      -1.22820561 </v>
   <v>      -0.10584869      -0.07167906      -0.97609250 </v>
   <v>      -0.74144336       0.39950857      -0.11247559 </v>
   <v>      -0.51219362       0.52628815      -0.02229192 </v>
   <v>      -0.49555448      -0.13234155      -0.34621037 </v>
   <v>      -2.15606922       1.41978962       0.16986709 </v>
   <v>       1.20986013       0.41699935      -0.33920601 </v>
   <v>      -0.94114890       0.12555144       0.25562473 </v>
   <v>      -1.25327872      -0.19571525      -1.60625190 </v>
   <v>       0.12299552       0.51629611      -0.66641842 </v>
  </varray>
  <varray name="stress" >
   <v>     -25.52379578       3.06958344      -6.59875126 </v>
   <v>       3.06958340      -8.59719302      25.13061568 </v>
   <v>      -6.59875100      25.13061568       8.09745869 </v>
  </varray>
  <energy>
   <i name="e_fr_energy">   -300.97724350 </i>
   <i name="e_wo_entrp">   -300.82959864 </i>
   <i name="e_0_energy">   -300.90342107 </i>
   <i name="kinetic">     19.76591348 </i>
   <i name="lattice kinetic">      0.00000000 </i>
   <i name="nosepot">    -41.68459308 </i>
   <i name="nosekinetic">      0.36652241 </i>
   <i name="total">   -322.52940068 </i>
  </energy>
  <time name="totalsc">   92.16    2.30</time>
 </calculation>
 <calculation>
  <scstep>
   <time name="diag">    3.33    0.08</time>
   <time name="diis">    6.53    0.16</time>
   <time name="orth">    0.35    0.01</time>
   <time name="total">   11.79    0.29</time>
   <energy>
    <i name="alphaZ">    105.38177171 </i>
    <i name="ewald">  -7107.86812289 </i>
    <i name="hartreedc">   -626.16149536 </i>
    <i name="XCdc">   -586.39320936 </i>
    <i name="pawpsdc">  32131.19035015 </i>
    <i name="pawaedc"> -31009.38509496 </i>
    <i name="eentropy">     -0.14352871 </i>
    <i name="bandstr">    197.23066992 </i>
    <i name="atom">   6595.45443641 </i>
    <i name="e_fr_energy">   -300.69422310 </i>
    <i name="e_wo_entrp">   -300.55069439 </i>
    <i name="e_0_energy">   -300.62245875 </i>
   </energy>
  </scstep>
  <scstep>
   <time name="diag">    3.20    0.08</time>
   <time name="diis">    7.28    0.18</time>
   <time name="orth">    0.35    0.01</time>
   <time name="total">   12.42    0.31</time>
   <energy>
    <i name="e_fr_energy">   -300.70126541 </i>
    <i name="e_wo_entrp">   -300.55857170 </i>
    <i name="e_0_energy">   -300.62991856 </i>
   </energy>
  </scstep>
  <scstep>
   <time name="diag">    3.20    0.08</time>
   <time name="diis">    7.31    0.18</time>
   <time name="orth">    0.35    0.01</time>
   <time name="total">   12.47    0.31</time>
   <energy>
    <i name="e_fr_energy">   -300.70201789 </i>
    <i name="e_wo_entrp">   -300.55915063 </i>
    <i name="e_0_energy">   -300.63058426 </i>
   </energy>
  </scstep>
  <scstep>
   <time name="diag">    3.42    0.09</time>
[...]
       <r>    -3.6483     9.9648    35.7855 </r>
       <r>    -3.5906     7.6002    36.2245 </r>
       <r>    -3.5328    10.3292    36.8210 </r>
       <r>    -3.4751    14.3106    37.6475 </r>
       <r>    -3.4173    15.8987    38.5657 </r>
       <r>    -3.3596    16.3265    39.5087 </r>
       <r>    -3.3018    17.3281    40.5094 </r>
       <r>    -3.2440    19.9417    41.6611 </r>
       <r>    -3.1863    20.0554    42.8194 </r>
       <r>    -3.1285    15.0617    43.6893 </r>
       <r>    -3.0708    11.8180    44.3718 </r>
       <r>    -3.0130    15.5391    45.2693 </r>
       <r>    -2.9553    19.7180    46.4081 </r>
       <r>    -2.8975    17.0068    47.3903 </r>
       <r>    -2.8398    11.3698    48.0469 </r>
       <r>    -2.7820    10.4255    48.6491 </r>
       <r>    -2.7243    11.7943    49.3302 </r>
       <r>    -2.6665    10.4254    49.9323 </r>
       <r>    -2.6088    10.0235    50.5112 </r>
       <r>    -2.5510    11.7536    51.1901 </r>
       <r>    -2.4932    11.2563    51.8402 </r>
       <r>    -2.4355    12.2537    52.5479 </r>
       <r>    -2.3777    18.7957    53.6334 </r>
       <r>    -2.3200    22.8172    54.9512 </r>
       <r>    -2.2622    19.8409    56.0971 </r>
       <r>    -2.2045    16.5216    57.0512 </r>
       <r>    -2.1467    15.5489    57.9493 </r>
       <r>    -2.0890    16.9737    58.9296 </r>
       <r>    -2.0312    19.6598    60.0650 </r>
       <r>    -1.9735    18.2855    61.1210 </r>
       <r>    -1.9157    13.1013    61.8777 </r>
       <r>    -1.8580    12.0965    62.5763 </r>
       <r>    -1.8002    18.1143    63.6225 </r>
       <r>    -1.7424    24.0679    65.0125 </r>
       <r>    -1.6847    24.1185    66.4054 </r>
       <r>    -1.6269    19.5362    67.5337 </r>
       <r>    -1.5692    16.5976    68.4923 </r>
       <r>    -1.5114    19.5296    69.6202 </r>
       <r>    -1.4537    24.1505    71.0150 </r>
       <r>    -1.3959    24.5553    72.4332 </r>
       <r>    -1.3382    20.1707    73.5981 </r>
       <r>    -1.2804    16.6182    74.5579 </r>
       <r>    -1.2227    17.5576    75.5719 </r>
       <r>    -1.1649    20.3466    76.7470 </r>
       <r>    -1.1071    23.0019    78.0755 </r>
       <r>    -1.0494    24.8613    79.5113 </r>
       <r>    -0.9916    25.9297    81.0088 </r>
       <r>    -0.9339    25.8625    82.5025 </r>
       <r>    -0.8761    23.7598    83.8747 </r>
       <r>    -0.8184    21.5905    85.1217 </r>
       <r>    -0.7606    23.3921    86.4726 </r>
       <r>    -0.7029    30.3831    88.2274 </r>
       <r>    -0.6451    33.6029    90.1681 </r>
       <r>    -0.5874    26.5497    91.7014 </r>
       <r>    -0.5296    18.1427    92.7493 </r>
       <r>    -0.4719    12.7162    93.4837 </r>
       <r>    -0.4141     7.7219    93.9296 </r>
       <r>    -0.3563     6.8527    94.3254 </r>
       <r>    -0.2986    12.5477    95.0501 </r>
       <r>    -0.2408    19.1781    96.1577 </r>
       <r>    -0.1831    20.9527    97.3678 </r>
       <r>    -0.1253    20.1226    98.5300 </r>
       <r>    -0.0676    21.3841    99.7650 </r>
       <r>    -0.0098    24.4550   101.1774 </r>
       <r>     0.0479    26.6179   102.7147 </r>
       <r>     0.1057    25.4844   104.1865 </r>
       <r>     0.1634    20.9186   105.3946 </r>
       <r>     0.2212    16.4584   106.3452 </r>
       <r>     0.2789    14.0035   107.1539 </r>
       <r>     0.3367    10.7180   107.7729 </r>
       <r>     0.3945     8.7673   108.2793 </r>
       <r>     0.4522    12.5934   109.0066 </r>
       <r>     0.5100    19.6708   110.1426 </r>
       <r>     0.5677    25.1330   111.5942 </r>
       <r>     0.6255    23.5592   112.9548 </r>
       <r>     0.6832    15.7477   113.8643 </r>
       <r>     0.7410    13.4887   114.6433 </r>
       <r>     0.7987    19.8852   115.7918 </r>
       <r>     0.8565    23.5640   117.1527 </r>
       <r>     0.9142    20.7411   118.3506 </r>
       <r>     0.9720    18.5380   119.4212 </r>
       <r>     1.0297    18.3324   120.4800 </r>
       <r>     1.0875    17.8655   121.5118 </r>
       <r>     1.1453    17.6412   122.5307 </r>
       <r>     1.2030    19.1130   123.6345 </r>
       <r>     1.2608    21.2784   124.8634 </r>
       <r>     1.3185    22.5078   126.1633 </r>
       <r>     1.3763    22.4660   127.4608 </r>
       <r>     1.4340    23.9074   128.8416 </r>
       <r>     1.4918    27.5462   130.4325 </r>
       <r>     1.5495    27.9860   132.0488 </r>
       <r>     1.6073    24.9155   133.4878 </r>
       <r>     1.6650    23.7631   134.8602 </r>
       <r>     1.7228    25.4554   136.3303 </r>
       <r>     1.7806    26.1711   137.8418 </r>
       <r>     1.8383    24.8877   139.2792 </r>
       <r>     1.8961    23.8906   140.6590 </r>
       <r>     1.9538    23.7435   142.0302 </r>
       <r>     2.0116    22.6610   143.3390 </r>
       <r>     2.0693    21.2018   144.5635 </r>
       <r>     2.1271    21.7297   145.8185 </r>
       <r>     2.1848    23.7883   147.1923 </r>
       <r>     2.2426    25.1536   148.6451 </r>
       <r>     2.3003    24.9686   150.0871 </r>
       <r>     2.3581    24.8780   151.5239 </r>
       <r>     2.4158    24.9515   152.9650 </r>
       <r>     2.4736    25.1515   154.4176 </r>
       <r>     2.5314    26.3481   155.9393 </r>
       <r>     2.5891    25.2059   157.3950 </r>
       <r>     2.6469    22.6185   158.7013 </r>
       <r>     2.7046    23.5807   160.0632 </r>
       <r>     2.7624    25.7924   161.5528 </r>
       <r>     2.8201    25.2316   163.0100 </r>
       <r>     2.8779    23.3934   164.3611 </r>
       <r>     2.9356    24.8481   165.7962 </r>
       <r>     2.9934    30.2182   167.5414 </r>
       <r>     3.0511    33.4772   169.4748 </r>
       <r>     3.1089    29.4234   171.1742 </r>
       <r>     3.1666    23.0014   172.5026 </r>
       <r>     3.2244    21.4448   173.7411 </r>
       <r>     3.2822    26.4724   175.2700 </r>
       <r>     3.3399    35.2268   177.3045 </r>
       <r>     3.3977    38.9329   179.5530 </r>
       <r>     3.4554    33.6673   181.4974 </r>
       <r>     3.5132    28.4254   183.1391 </r>
       <r>     3.5709    29.1986   184.8255 </r>
       <r>     3.6287    30.0508   186.5610 </r>
       <r>     3.6864    28.4632   188.2049 </r>
       <r>     3.7442    28.4821   189.8498 </r>
       <r>     3.8019    28.4487   191.4929 </r>
       <r>     3.8597    26.3495   193.0146 </r>
       <r>     3.9174    26.6308   194.5527 </r>
       <r>     3.9752    30.4412   196.3108 </r>
       <r>     4.0330    33.2959   198.2337 </r>
       <r>     4.0907    35.1281   200.2625 </r>
       <r>     4.1485    37.9319   202.4533 </r>
       <r>     4.2062    38.7401   204.6907 </r>
       <r>     4.2640    37.4189   206.8517 </r>
       <r>     4.3217    35.2624   208.8883 </r>
       <r>     4.3795    32.8644   210.7863 </r>
       <r>     4.4372    33.2578   212.7071 </r>
       <r>     4.4950    34.1663   214.6804 </r>
       <r>     4.5527    34.1694   216.6538 </r>
       <r>     4.6105    37.0230   218.7920 </r>
       <r>     4.6683    39.2174   221.0570 </r>
       <r>     4.7260    36.8910   223.1876 </r>
       <r>     4.7838    33.5178   225.1233 </r>
       <r>     4.8415    28.7895   226.7861 </r>
       <r>     4.8993    22.1114   228.0631 </r>
       <r>     4.9570    18.1388   229.1107 </r>
       <r>     5.0148    18.7369   230.1928 </r>
       <r>     5.0725    23.9957   231.5786 </r>
       <r>     5.1303    30.9029   233.3634 </r>
       <r>     5.1880    35.2346   235.3984 </r>
       <r>     5.2458    39.1780   237.6610 </r>
       <r>     5.3035    42.3242   240.1054 </r>
       <r>     5.3613    39.8150   242.4049 </r>
       <r>     5.4191    33.3424   244.3306 </r>
       <r>     5.4768    30.0019   246.0633 </r>
       <r>     5.5346    31.4214   247.8780 </r>
       <r>     5.5923    31.4169   249.6925 </r>
       <r>     5.6501    27.8328   251.2999 </r>
       <r>     5.7078    26.3924   252.8242 </r>
       <r>     5.7656    29.1669   254.5087 </r>
       <r>     5.8233    32.2544   256.3715 </r>
       <r>     5.8811    33.7254   258.3193 </r>
       <r>     5.9388    32.2553   260.1822 </r>
       <r>     5.9966    26.1701   261.6936 </r>
       <r>     6.0543    20.0359   262.8507 </r>
       <r>     6.1121    18.7260   263.9322 </r>
       <r>     6.1699    24.1795   265.3287 </r>
       <r>     6.2276    32.0349   267.1788 </r>
       <r>     6.2854    30.1658   268.9210 </r>
       <r>     6.3431    20.7992   270.1223 </r>
       <r>     6.4009    16.9516   271.1013 </r>
       <r>     6.4586    21.8923   272.3657 </r>
       <r>     6.5164    34.6523   274.3670 </r>
       <r>     6.5741    44.7248   276.9500 </r>
       <r>     6.6319    38.5685   279.1775 </r>
       <r>     6.6896    27.9190   280.7899 </r>
       <r>     6.7474    26.7386   282.3342 </r>
       <r>     6.8051    28.9398   284.0056 </r>
       <r>     6.8629    28.9511   285.6776 </r>
       <r>     6.9207    27.5615   287.2694 </r>
       <r>     6.9784    29.2665   288.9597 </r>
       <r>     7.0362    37.2318   291.1100 </r>
       <r>     7.0939    41.8417   293.5265 </r>
       <r>     7.1517    36.1567   295.6147 </r>
       <r>     7.2094    28.7758   297.2766 </r>
       <r>     7.2672    27.7079   298.8768 </r>
       <r>     7.3249    28.8327   300.5420 </r>
       <r>     7.3827    25.6800   302.0252 </r>
       <r>     7.4404    21.6127   303.2734 </r>
       <r>     7.4982    19.5566   304.4029 </r>
       <r>     7.5560    16.4921   305.3553 </r>
       <r>     7.6137    13.9787   306.1627 </r>
       <r>     7.6715    19.4537   307.2862 </r>
       <r>     7.7292    30.1811   309.0293 </r>
       <r>     7.7870    31.9555   310.8748 </r>
       <r>     7.8447    24.3751   312.2826 </r>
       <r>     7.9025    19.3868   313.4023 </r>
       <r>     7.9602    20.8741   314.6078 </r>
       <r>     8.0180    27.5674   316.1999 </r>
       <r>     8.0757    33.5564   318.1380 </r>
       <r>     8.1335    32.4442   320.0117 </r>
       <r>     8.1912    27.5300   321.6017 </r>
       <r>     8.2490    22.7275   322.9143 </r>
       <r>     8.3068    18.3267   323.9728 </r>
       <r>     8.3645    17.3152   324.9728 </r>
       <r>     8.4223    18.9249   326.0658 </r>
       <r>     8.4800    17.3263   327.0664 </r>
       <r>     8.5378    10.9032   327.6961 </r>
       <r>     8.5955     4.2149   327.9396 </r>
       <r>     8.6533     0.9278   327.9931 </r>
       <r>     8.7110     0.1114   327.9996 </r>
       <r>     8.7688     0.0071   328.0000 </r>
       <r>     8.8265     0.0002   328.0000 </r>
       <r>     8.8843     0.0000   328.0000 </r>
       <r>     8.9420     0.0000   328.0000 </r>
       <r>     8.9998     0.0000   328.0000 </r>
       <r>     9.0576     0.0000   328.0000 </r>
       <r>     9.1153     0.0000   328.0000 </r>
       <r>     9.1731     0.0000   328.0000 </r>
       <r>     9.2308     0.0000   328.0000 </r>
       <r>     9.2886     0.0000   328.0000 </r>
       <r>     9.3463     0.0000   328.0000 </r>
       <r>     9.4041     0.0000   328.0000 </r>
       <r>     9.4618     0.0000   328.0000 </r>
      </set>
     </set>
    </array>
   </total>
  </dos>
 </calculation>
 <structure name="finalpos" >
  <crystal>
   <varray name="basis" >
    <v>      10.93745600       0.00000000       0.00000000 </v>
    <v>       0.00000000      10.93745600       0.00000000 </v>
    <v>       0.00000000       0.00000000      10.93745600 </v>
   </varray>
   <i name="volume">   1308.42537116 </i>
   <varray name="rec_basis" >
    <v>       0.09142894       0.00000000       0.00000000 </v>
    <v>       0.00000000       0.09142894       0.00000000 </v>
    <v>       0.00000000       0.00000000       0.09142894 </v>
   </varray>
  </crystal>
  <varray name="positions" >
   <v>       0.08012591       0.37511659       0.16254380 </v>
   <v>       0.29132499       0.28815225       0.67774295 </v>
   <v>       0.11866539       0.90415749       0.03724166 </v>
   <v>       0.08111612       0.86746673       0.61942631 </v>
   <v>       0.57860524       0.55024122       0.23581959 </v>
   <v>       0.63321576       0.36545997       0.71114306 </v>
   <v>       0.62092531       0.79066011       0.16185360 </v>
   <v>       0.60250416       0.82992363       0.53766286 </v>
   <v>       0.01523579       0.04988791       0.16062139 </v>
   <v>       0.95435836       0.01081204       0.69844867 </v>
   <v>       0.97040705       0.54300719       0.24669637 </v>
   <v>       0.14009090       0.50510553       0.80230256 </v>
   <v>       0.52244709       0.95023873       0.32162554 </v>
   <v>       0.50621891       0.96602360       0.71548926 </v>
   <v>       0.36331085       0.67390910       0.28871921 </v>
   <v>       0.49513330       0.47453280       0.86640147 </v>
   <v>       0.17151644       0.17264828       0.27772942 </v>
   <v>       0.02718024       0.08600852       0.90438309 </v>
   <v>       0.07233366       0.51245255       0.48120725 </v>
   <v>       0.18580740       0.68299760       0.91016590 </v>
   <v>       0.64074737       0.12877556       0.35560838 </v>
   <v>       0.64410210       0.11841921       0.77451684 </v>
   <v>       0.82599571       0.66661208       0.45615476 </v>
   <v>       0.61281763       0.52990555       0.01808377 </v>
   <v>       0.90346667       0.27434509       0.04812024 </v>
   <v>       0.08506884       0.20287707       0.52939265 </v>
   <v>       0.95707265       0.78547518       0.89503791 </v>
   <v>       0.05011414       0.71063137       0.43562477 </v>
   <v>       0.48996574       0.13737935       0.92214543 </v>
   <v>       0.54455848       0.32589994       0.51665868 </v>
   <v>       0.44949476       0.72803337       0.08842063 </v>
   <v>       0.59744243       0.61874133       0.47607760 </v>
   <v>       0.41807688       0.46731006       0.40037814 </v>
   <v>       0.35886250       0.32410290       0.91212546 </v>
   <v>       0.27969002       0.88802996       0.28653909 </v>
   <v>       0.38395551       0.89382710       0.91358232 </v>
   <v>       0.74675906       0.42848541       0.35441392 </v>
   <v>       0.94382408       0.45780496       0.90036425 </v>
   <v>       0.91417376       0.91327649       0.30042524 </v>
   <v>       0.81739361       0.93211591       0.87053308 </v>
   <v>       0.25270826       0.10930902       0.86445074 </v>
   <v>       0.19117102       0.00078243       0.44332750 </v>
   <v>       0.27912955       0.36879605       0.08925435 </v>
   <v>       0.26335763       0.46999048       0.57759731 </v>
   <v>       0.75249535       0.97827675       0.07703951 </v>
   <v>       0.78473428       0.97335150       0.48573020 </v>
   <v>       0.77956631       0.61741323       0.79979294 </v>
   <v>       0.74767634       0.49776615       0.53890684 </v>
   <v>       0.45085569       0.11500702       0.16828715 </v>
   <v>       0.40335049       0.08398663       0.57501585 </v>
   <v>       0.27278025       0.58608654       0.11200925 </v>
   <v>       0.39261171       0.58861567       0.67755848 </v>
   <v>       0.65218063       0.18213514       0.06608067 </v>
   <v>       0.89162698       0.18201612       0.61432090 </v>
   <v>       0.87070516       0.59753819       0.04004014 </v>
   <v>       0.94887722       0.51293285       0.67186236 </v>
   <v>       0.35911234       0.28505705       0.30297310 </v>
   <v>       0.20108549       0.08559615       0.67770455 </v>
   <v>       0.08780682       0.74484009       0.23472698 </v>
   <v>       0.29066153       0.78726970       0.72418443 </v>
   <v>       0.58599921       0.30602377       0.26697696 </v>
   <v>       0.80739479       0.30535510       0.78295870 </v>
   <v>       0.78297491       0.66855852       0.25205152 </v>
   <v>       0.85703321       0.82244616       0.68572252 </v>
  </varray>
  <varray name="velocities" >
   <v>      -0.00334045       0.00218567      -0.00108040 </v>
   <v>       0.00479457       0.00042444       0.00027730 </v>
   <v>       0.00189710      -0.00086825      -0.00116952 </v>
   <v>       0.00044950       0.00231371       0.00086604 </v>
   <v>      -0.00097971      -0.00130807      -0.00231070 </v>
   <v>      -0.00099310      -0.00149426       0.00211297 </v>
   <v>      -0.00214102      -0.00127938       0.00126859 </v>
   <v>      -0.00231809       0.00358344       0.00080945 </v>
   <v>       0.00305457       0.00198076       0.00242894 </v>
   <v>      -0.00413064       0.00117731       0.00012412 </v>
   <v>      -0.00088015       0.00178684      -0.00130790 </v>
   <v>       0.00141549      -0.00289267       0.00125299 </v>
   <v>      -0.00167982       0.00067609       0.00360293 </v>
   <v>      -0.00105573      -0.00230296       0.00074272 </v>
   <v>      -0.00376867       0.00210162       0.00001219 </v>
   <v>      -0.00084721       0.00304409       0.00438173 </v>
   <v>       0.00134986       0.00307135      -0.00032782 </v>
   <v>      -0.00189733       0.00043545      -0.00039972 </v>
   <v>       0.00006559      -0.00490211      -0.00091243 </v>
   <v>      -0.00045885      -0.00138344       0.00039267 </v>
   <v>       0.00215388       0.00073172      -0.00150521 </v>
   <v>      -0.00148652      -0.00306155       0.00159178 </v>
   <v>       0.00297275      -0.00041416      -0.00083818 </v>
   <v>      -0.00188085       0.00025546       0.00124433 </v>
   <v>      -0.00155896      -0.00029829      -0.00125108 </v>
   <v>       0.00355836      -0.00364547       0.00288684 </v>
   <v>      -0.00292395      -0.00171784      -0.00221920 </v>
   <v>       0.00127439      -0.00322328      -0.00556215 </v>
   <v>       0.00471934      -0.00001802       0.00310537 </v>
   <v>       0.00273661      -0.00132109      -0.00015905 </v>
   <v>      -0.00022936      -0.00227952       0.00241493 </v>
   <v>       0.00593839      -0.00260365      -0.00141074 </v>
   <v>      -0.00265900       0.00135372      -0.00180876 </v>
   <v>       0.00218010       0.00111221       0.00338704 </v>
   <v>      -0.00342173       0.00226911       0.00044782 </v>
   <v>      -0.00130846       0.00162032       0.00013174 </v>
   <v>      -0.00309745       0.00124315       0.00102798 </v>
   <v>       0.00072961       0.00106252      -0.00034229 </v>
   <v>       0.00033076      -0.00229069       0.00042130 </v>
   <v>       0.00173101       0.00049915      -0.00246316 </v>
   <v>       0.00015396       0.00016962      -0.00355403 </v>
   <v>       0.00162296      -0.00359411       0.00032888 </v>
   <v>      -0.00034980      -0.00102694      -0.00367144 </v>
   <v>       0.00172352      -0.00222731       0.00275904 </v>
   <v>      -0.00138077       0.00050038       0.00231452 </v>
   <v>      -0.00067072      -0.00124147      -0.00066691 </v>
   <v>       0.00086646       0.00207538      -0.00340511 </v>
   <v>      -0.00265324      -0.00055761      -0.00119417 </v>
   <v>       0.00136289       0.00140657      -0.00151662 </v>
   <v>       0.00038617      -0.00030198      -0.00100193 </v>
   <v>      -0.00002706       0.00243656       0.00090640 </v>
   <v>      -0.00491520       0.00069886       0.00142049 </v>
   <v>      -0.00374033       0.00082254       0.00012965 </v>
   <v>      -0.00033091       0.00190814       0.00159011 </v>
   <v>      -0.00226645      -0.00182326      -0.00137842 </v>
   <v>      -0.00083667      -0.00094358      -0.00128404 </v>
   <v>       0.00184547      -0.00130294       0.00045092 </v>
   <v>       0.00007825       0.00066649      -0.00122205 </v>
   <v>       0.00007401       0.00043368      -0.00140073 </v>
   <v>       0.00429990       0.00056076      -0.00090455 </v>
   <v>       0.00336834       0.00014826      -0.00093003 </v>
   <v>      -0.00262208       0.00325330       0.00187294 </v>
   <v>       0.00319200       0.00148174       0.00026200 </v>
   <v>       0.00252448       0.00083350       0.00023166 </v>
  </varray>
 </structure>
</modeling>
