liquid Si                               
           1
    10.937456    0.000000    0.000000
     0.000000   10.937456    0.000000
     0.000000    0.000000   10.937456
   Si
    64
Direct configuration=     1
   0.08421579  0.32816896  0.17672733
   0.16118440  0.34325767  0.64311829
   0.12551827  0.90887540  0.09236136
   0.12275086  0.87956258  0.63586956
   0.61684341  0.49850948  0.23722693
   0.65484450  0.32764759  0.65722351
   0.64753285  0.81448792  0.13946541
   0.64516523  0.87637249  0.57873934
   0.97515658  0.04210274  0.18612437
   0.98075903  0.02630815  0.74000131
   0.01398114  0.48215465  0.29226156
   0.11085854  0.47855945  0.80087009
   0.50805114  0.93683313  0.28587845
   0.55911434  0.99745642  0.70462744
   0.43645534  0.61155060  0.28315575
   0.49624836  0.43556197  0.79782874
   0.11578064  0.12740099  0.30937071
   0.02794869  0.09378216  0.94025736
   0.06768654  0.56543015  0.48603961
   0.15419352  0.65760279  0.92150244
   0.56503542  0.09974599  0.39983731
   0.67745003  0.14708336  0.80186995
   0.74357357  0.69706308  0.43034873
   0.63301624  0.56195784  0.01412862
   0.95137083  0.26647021  0.03708890
   0.04582050  0.28696960  0.44687776
   0.95408542  0.78785684  0.95101811
   0.98152387  0.78157703  0.45791103
   0.47053673  0.12173583  0.89633270
   0.52617444  0.25818805  0.52122465
   0.46324548  0.77773144  0.02123898
   0.47258716  0.74534247  0.48489820
   0.39655974  0.40293241  0.39459732
   0.32591618  0.30079474  0.85775218
   0.30656174  0.81558127  0.26745660
   0.38437507  0.93745525  0.83117585
   0.81219185  0.42305639  0.33647298
   0.93132901  0.40479874  0.88947793
   0.86618249  0.88857627  0.29347940
   0.83488195  0.90971186  0.82707874
   0.25244499  0.04030745  0.99205985
   0.22329481  0.01068826  0.46678057
   0.27574099  0.41288846  0.03449905
   0.27313095  0.51226201  0.58011019
   0.76786766  0.99330000  0.05280218
   0.75936097  0.03308213  0.42498245
   0.83485884  0.60732850  0.88901143
   0.79298368  0.48638129  0.51662155
   0.47797935  0.13034559  0.18494706
   0.35969933  0.11509045  0.57154815
   0.29063903  0.65575392  0.11637022
   0.40860094  0.60505378  0.69131072
   0.74656198  0.22509597  0.08283801
   0.94060890  0.13890335  0.57381563
   0.92322398  0.62746959  0.11848763
   0.93341591  0.58208967  0.67954389
   0.31386846  0.23191915  0.28722703
   0.17859342  0.12459610  0.67795022
   0.11885946  0.74924130  0.23460847
   0.27985874  0.76100554  0.77916089
   0.59282737  0.27502582  0.26130290
   0.88243060  0.24401249  0.75400062
   0.76146622  0.66747192  0.23642690
   0.76497654  0.72443329  0.72467891
Direct configuration=     2
   0.08067424  0.32922237  0.17996022
   0.16591319  0.34086018  0.64417911
   0.12805268  0.91084076  0.08720602
   0.12277282  0.87813587  0.63819963
   0.61357790  0.49823832  0.24045922
   0.65607327  0.32848833  0.65763241
   0.65018650  0.81370517  0.14110740
   0.64642463  0.87759834  0.57744501
   0.97348868  0.04539836  0.18211026
   0.98017396  0.02545467  0.74120418
   0.01304510  0.48200888  0.29184130
   0.11227901  0.48351839  0.79959744
   0.50844118  0.93526034  0.28593771
   0.55922535  0.99448558  0.70464243
   0.43331441  0.61687461  0.28325017
   0.49505288  0.43654048  0.79759910
   0.11481500  0.12821467  0.30573263
   0.02589034  0.09418169  0.93936814
   0.06549396  0.56292591  0.48473028
   0.15662616  0.65942103  0.92270369
   0.56786644  0.10144490  0.40108531
   0.67661813  0.14826824  0.79803235
   0.74703280  0.69938863  0.42887963
   0.63611697  0.56093353  0.01343988
   0.95133743  0.26315973  0.03676419
   0.04739758  0.28528074  0.44772713
   0.95564054  0.78672121  0.94994107
   0.97961629  0.78057033  0.45643859
   0.46992750  0.11937037  0.89463501
   0.52489778  0.25563446  0.52187525
   0.46142925  0.77522979  0.02301312
   0.47281432  0.73844293  0.48397328
   0.39800701  0.40761792  0.39550583
   0.32435803  0.30133383  0.85857113
   0.31028246  0.81615202  0.26810687
   0.38263090  0.93430286  0.83212246
   0.81228277  0.42419002  0.33877766
   0.93109911  0.40520032  0.89243533
   0.86777763  0.89135444  0.29571598
   0.83510705  0.91303423  0.82728114
   0.25005015  0.04165564  0.98987365
   0.22267770  0.01449014  0.46770249
   0.27911011  0.41101606  0.03687789
   0.27471239  0.51182547  0.58106498
   0.76985234  0.99376645  0.05674912
   0.76067101  0.02971010  0.42748153
   0.83177022  0.60646089  0.88583734
   0.79331771  0.48452928  0.51579642
   0.47625447  0.12911313  0.18602501
   0.36029040  0.11691895  0.56919634
   0.28844018  0.65391612  0.11491614
   0.40598965  0.60813181  0.69276042
   0.74634995  0.22304848  0.08164687
   0.93534402  0.13790261  0.57541236
   0.91858719  0.62901381  0.11544334
   0.93421212  0.57768497  0.68052843
   0.31654834  0.23455288  0.28787877
   0.18010845  0.12044211  0.67704174
   0.11683335  0.74836631  0.23677151
   0.28357165  0.75745328  0.77557028
   0.58913054  0.27960520  0.26247396
   0.88173627  0.24515783  0.75410501
   0.76345504  0.66710703  0.23765157
   0.76722549  0.72912697  0.72196728
Direct configuration=     3
   0.07779291  0.33001873  0.18319681
   0.17084349  0.33818848  0.64526048
   0.13021684  0.91259320  0.08202801
   0.12271191  0.87661897  0.64034767
   0.61026946  0.49801950  0.24350851
   0.65748965  0.32977455  0.65849317
   0.65260524  0.81340118  0.14267886
   0.64821364  0.87807184  0.57530204
   0.97140280  0.04840204  0.17748963
   0.98002392  0.02443515  0.74231958
   0.01186267  0.48219309  0.29145628
   0.11352204  0.48856021  0.79838121
   0.50870093  0.93337229  0.28572041
   0.55878112  0.99188003  0.70496792
   0.43023974  0.62221236  0.28369060
   0.49405378  0.43751000  0.79736777
   0.11423883  0.12951544  0.30228636
   0.02408723  0.09445351  0.93854310
   0.06330737  0.56062466  0.48346850
   0.15904719  0.66147383  0.92404536
   0.57090709  0.10307187  0.40222250
   0.67590761  0.14971758  0.79422206
   0.75058469  0.70183619  0.42845852
   0.63925203  0.55993123  0.01258428
   0.95107634  0.25961016  0.03668095
   0.04902899  0.28354023  0.44874834
   0.95762168  0.78520842  0.94914488
   0.97782305  0.77927531  0.45516355
   0.46927923  0.11735302  0.89324451
   0.52297614  0.25336766  0.52247145
   0.45956998  0.77258873  0.02481809
   0.47328525  0.73124034  0.48304184
   0.39945290  0.41253576  0.39656349
   0.32292776  0.30187235  0.85924140
   0.31453212  0.81698589  0.26898490
   0.38098182  0.93092909  0.83342286
   0.81242208  0.42498990  0.34011508
   0.93086450  0.40601763  0.89502715
   0.86936003  0.89432090  0.29795268
   0.83482593  0.91623918  0.82780786
   0.24774385  0.04330255  0.98736229
   0.22165339  0.01794775  0.46846430
   0.28234601  0.40910499  0.03973708
   0.27592499  0.51090792  0.58132529
   0.77195481  0.99417595  0.06076958
   0.76237985  0.02601431  0.43045248
   0.82834371  0.60536128  0.88303771
   0.79344479  0.48303457  0.51650602
   0.47415801  0.12746220  0.18676361
   0.36161038  0.11899264  0.56703694
   0.28618143  0.65184146  0.11302746
   0.40382563  0.61161344  0.69424492
   0.74583212  0.22064871  0.08047901
   0.92969232  0.13706636  0.57655102
   0.91439059  0.63067289  0.11200671
   0.93505600  0.57307420  0.68126233
   0.31911981  0.23736370  0.28848929
   0.18152237  0.11632177  0.67609854
   0.11444374  0.74731247  0.23896131
   0.28703176  0.75394366  0.77174364
   0.58575342  0.28466488  0.26359652
   0.88072729  0.24634992  0.75425365
   0.76524774  0.66671863  0.23841471
   0.76952603  0.73415321  0.71894695
Direct configuration=     4
   0.07556756  0.33041664  0.18626783
   0.17592579  0.33527222  0.64643023
   0.13187069  0.91397430  0.07701717
   0.12256140  0.87500186  0.64226395
   0.60696460  0.49800389  0.24634694
   0.65897309  0.33148758  0.65969894
   0.65471833  0.81359356  0.14416594
   0.65047982  0.87777403  0.57235193
   0.96893341  0.05105635  0.17235311
   0.98040488  0.02332334  0.74323787
   0.01040170  0.48281326  0.29112115
   0.11454668  0.49354639  0.79720719
   0.50887671  0.93128349  0.28527071
   0.55778777  0.98963317  0.70561104
   0.42732256  0.62746156  0.28446259
   0.49325555  0.43847567  0.79713591
   0.11407805  0.13128607  0.29906151
   0.02260614  0.09452469  0.93774859
   0.06118718  0.55854210  0.48231143
   0.16143092  0.66376523  0.92546030
   0.57417436  0.10449173  0.40308077
   0.67530802  0.15137912  0.79048597
   0.75422620  0.70438486  0.42914007
   0.64236195  0.55895096  0.01159100
   0.95060538  0.25599016  0.03691838
   0.05070838  0.28172616  0.44995323
   0.95996655  0.78334134  0.94858297
   0.97619701  0.77769262  0.45413303
   0.46857973  0.11571067  0.89216065
   0.52054371  0.25158562  0.52313548
   0.45772717  0.76985777  0.02665890
   0.47401998  0.72383782  0.48214843
   0.40090052  0.41761226  0.39774518
   0.32165163  0.30239084  0.85972903
   0.31909479  0.81802632  0.27002276
   0.37948774  0.92739832  0.83508478
   0.81257838  0.42543099  0.34035448
   0.93068347  0.40722435  0.89719739
   0.87095516  0.89742972  0.30009154
   0.83398813  0.91921714  0.82874460
   0.24564056  0.04534641  0.98445536
   0.22019959  0.02102812  0.46901735
   0.28543057  0.40716785  0.04310523
   0.27675032  0.50953561  0.58089092
   0.77413487  0.99450557  0.06480107
   0.76441033  0.02211248  0.43390220
   0.82461288  0.60408573  0.88058159
   0.79335690  0.48194208  0.51887875
   0.47182136  0.12549288  0.18722157
   0.36358061  0.12125169  0.56511158
   0.28384927  0.64953234  0.11076759
   0.40234481  0.61516586  0.69560675
   0.74497478  0.21793041  0.07935987
   0.92372905  0.13640293  0.57722523
   0.91074070  0.63240903  0.10813881
   0.93588929  0.56833531  0.68173440
   0.32153924  0.24035435  0.28908209
   0.18282279  0.11225575  0.67512714
   0.11185664  0.74619616  0.24110337
   0.28995600  0.75075815  0.76787646
   0.58264348  0.28996187  0.26464845
   0.87942561  0.24760571  0.75447904
   0.76672386  0.66626517  0.23873648
   0.77191543  0.73944438  0.71566573
Direct configuration=     5
   0.07399476  0.33032040  0.18902742
   0.18110308  0.33214282  0.64774984
   0.13290675  0.91486090  0.07232247
   0.12231824  0.87327876  0.64390776
   0.60371080  0.49835978  0.24895247
   0.66039837  0.33360314  0.66114316
   0.65647464  0.81428742  0.14555914
   0.65311031  0.87674124  0.56872831
   0.96617026  0.05332966  0.16684151
   0.98137129  0.02218684  0.74384144
   0.00865939  0.48394547  0.29082531
   0.11534858  0.49835019  0.79606752
   0.50903809  0.92910756  0.28463126
   0.55630427  0.98768901  0.70651281
   0.42463894  0.63248090  0.28552684
   0.49265749  0.43944318  0.79690689
   0.11432452  0.13347408  0.29607637
   0.02151392  0.09432838  0.93694105
   0.05919341  0.55669375  0.48131285
   0.16374189  0.66628634  0.92685217
   0.57767507  0.10561346  0.40353260
   0.67480329  0.15318479  0.78687605
   0.75795033  0.70699362  0.43085684
   0.64537927  0.55799011  0.01049859
   0.94992918  0.25249949  0.03752692
   0.05241750  0.27982285  0.45134899
   0.96260110  0.78117683  0.94820225
   0.97479404  0.77583504  0.45338532
   0.46781535  0.11445781  0.89136926
   0.51779323  0.25048330  0.52394502
   0.45595636  0.76709846  0.02853065
   0.47503246  0.71633793  0.48135641
   0.40235563  0.42277803  0.39901889
   0.32055450  0.30288137  0.86001738
   0.32373568  0.81924514  0.27115635
   0.37820647  0.92378059  0.83711108
   0.81268452  0.42554958  0.33957940
   0.93059680  0.40875960  0.89893091
   0.87258850  0.90060387  0.30203701
   0.83257794  0.92187936  0.83015004
   0.24383731  0.04786605  0.98110726
   0.21833918  0.02373176  0.46933299
   0.28834348  0.40521009  0.04698237
   0.27721541  0.50778435  0.57981347
   0.77632724  0.99472857  0.06876417
   0.76665716  0.01815894  0.43782224
   0.82063076  0.60270638  0.87841668
   0.79306447  0.48122250  0.52280357
   0.46936537  0.12331930  0.18745463
   0.36603491  0.12356225  0.56345664
   0.28146205  0.64699075  0.10823668
   0.40182566  0.61830590  0.69660552
   0.74375897  0.21494284  0.07830906
   0.91754570  0.13590150  0.57746988
   0.90770943  0.63417536  0.10383172
   0.93665460  0.56356158  0.68194048
   0.32377364  0.24351718  0.28966794
   0.18400675  0.10827804  0.67414371
   0.10921148  0.74509746  0.24313361
   0.29197571  0.74829426  0.76421506
   0.57975455  0.29521511  0.26561680
   0.87785869  0.24892500  0.75480490
   0.76779857  0.66571863  0.23871991
   0.77442272  0.74490514  0.71219423
Direct configuration=     6
   0.07305977  0.32971258  0.19137457
   0.18630642  0.32884255  0.64926492
   0.13327480  0.91518822  0.06803739
   0.12198859  0.87144595  0.64525785
   0.60054622  0.49925449  0.25131324
   0.66165419  0.33609281  0.66273012
   0.65784241  0.81546736  0.14685125
   0.65594324  0.87504799  0.56462969
   0.96325810  0.05521504  0.16113954
   0.98291070  0.02105963  0.74403079
   0.00666468  0.48560992  0.29052143
   0.11595088  0.50287177  0.79496254
   0.50927689  0.92695065  0.28384423
   0.55442592  0.98596648  0.70757539
   0.42225125  0.63708975  0.28680847
   0.49225885  0.44041745  0.79668957
   0.11494900  0.13598983  0.29333222
   0.02086944  0.09382390  0.93608049
   0.05738569  0.55509665  0.48052243
   0.16592563  0.66901403  0.92810398
   0.58138586  0.10640960  0.40350975
   0.67437295  0.15505785  0.78344793
   0.76173960  0.70959924  0.43344145
   0.64823473  0.55704765  0.00934606
   0.94904060  0.24933534  0.03852327
   0.05412938  0.27782860  0.45293678
   0.96545077  0.77879887  0.94794562
   0.97366893  0.77373316  0.45293990
   0.46697705  0.11360133  0.89084775
   0.51496802  0.25022225  0.52490928
   0.45430157  0.76438019  0.03042367
   0.47633149  0.70884624  0.48074552
   0.40383296  0.42796300  0.40034659
   0.31965627  0.30334763  0.86011281
   0.32820665  0.82064591  0.27232785
   0.37719340  0.92014383  0.83949816
   0.81264931  0.42542543  0.33804334
   0.93062739  0.41054885  0.90023911
   0.87429618  0.90375095  0.30371253
   0.83063120  0.92417263  0.83203333
   0.24238983  0.05088732  0.97731396
   0.21613795  0.02608216  0.46940235
   0.29106241  0.40323399  0.05133911
   0.27736375  0.50575904  0.57818781
   0.77842964  0.99480531  0.07255509
   0.76901007  0.01431982  0.44218085
   0.81647382  0.60130105  0.87647758
   0.79259506  0.48079852  0.52797404
   0.46688896  0.12104690  0.18751477
   0.36873139  0.12571547  0.56210447
   0.27907431  0.64421101  0.10557130
   0.40256211  0.62051088  0.69697585
   0.74217602  0.21174438  0.07733006
   0.91124938  0.13554500  0.57735517
   0.90531960  0.63591546  0.09912191
   0.93730723  0.55883998  0.68188602
   0.32580278  0.24684739  0.29023576
   0.18508291  0.10442596  0.67317267
   0.10661283  0.74407194  0.24499914
   0.29269689  0.74698231  0.76100960
   0.57704478  0.30013983  0.26650096
   0.87605400  0.25029582  0.75524432
   0.76842935  0.66506658  0.23852148
   0.77706799  0.75043827  0.70862492
Direct configuration=     7
   0.07272604  0.32866241  0.19325769
   0.19148023  0.32541332  0.65100141
   0.13299557  0.91496487  0.06419895
   0.12158962  0.86950508  0.64629799
   0.59750189  0.50084100  0.25343197
   0.66264642  0.33892753  0.66438005
   0.65881500  0.81708648  0.14804232
   0.65877692  0.87276373  0.56028513
   0.96038784  0.05672249  0.15545726
   0.98493781  0.01994144  0.74374072
   0.00447656  0.48776178  0.29012966
   0.11639578  0.50704263  0.79389956
   0.50970291  0.92492399  0.28295023
   0.55226145  0.98439052  0.70869040
   0.42018896  0.64110321  0.28819786
   0.49206110  0.44139789  0.79650256
   0.11591780  0.13871752  0.29082758
   0.02071945  0.09300817  0.93514407
   0.05581658  0.55375703  0.47997749
   0.16791446  0.67191458  0.92908277
   0.58525007  0.10692394  0.40300657
   0.67399344  0.15690516  0.78025965
   0.76554596  0.71212350  0.43666171
   0.65085990  0.55611561  0.00817667
   0.94793503  0.24666832  0.03988194
   0.05580970  0.27575173  0.45471658
   0.96845212  0.77632179  0.94774975
   0.97288709  0.77143371  0.45280183
   0.46605234  0.11313379  0.89057014
   0.51235860  0.25092934  0.52596542
   0.45279183  0.76177335  0.03232221
   0.47792410  0.70145538  0.48040470
   0.40536321  0.43310008  0.40168980
   0.31897456  0.30379196  0.86004400
   0.33225144  0.82225802  0.27348127
   0.37649876  0.91656108  0.84224117
   0.81237617  0.42514808  0.33606377
   0.93077457  0.41252346  0.90115729
   0.87611106  0.90677741  0.30506023
   0.82824337  0.92608872  0.83435909
   0.24131147  0.05437926  0.97311563
   0.21367919  0.02810784  0.46922884
   0.29356565  0.40124315  0.05613260
   0.27723544  0.50357438  0.57613191
   0.78029432  0.99468335  0.07605708
   0.77137382  0.01076158  0.44691331
   0.81222816  0.59993920  0.87468849
   0.79197737  0.48057580  0.53398840
   0.46446600  0.11875813  0.18744944
   0.37138948  0.12746417  0.56108665
   0.27676638  0.64117776  0.10293322
   0.40472411  0.62142412  0.69653848
   0.74023064  0.20840725  0.07641419
   0.90496729  0.13531791  0.57697588
   0.90354090  0.63755887  0.09410023
   0.93781510  0.55424928  0.68159034
   0.32762153  0.25033105  0.29076591
   0.18606320  0.10072891  0.67224859
   0.10413822  0.74315564  0.24665735
   0.29185482  0.74708773  0.75841313
   0.57447802  0.30449004  0.26730283
   0.87404279  0.25169322  0.75579443
   0.76861225  0.66430815  0.23830207
   0.77985815  0.75595314  0.70506157
Direct configuration=     8
   0.07293059  0.32732231  0.19466776
   0.19658529  0.32190749  0.65295907
   0.13214282  0.91426720  0.06078169
   0.12113880  0.86746627  0.64701342
   0.59461986  0.50323158  0.25531735
   0.66329975  0.34207003  0.66604377
   0.65941145  0.81907450  0.14914158
   0.66140041  0.86995287  0.55590991
   0.95779957  0.05787902  0.15002937
   0.98731078  0.01882095  0.74294720
   0.00218035  0.49030827  0.28955671
   0.11673575  0.51082132  0.79289445
   0.51042772  0.92313974  0.28199292
   0.54991459  0.98290776  0.70975606
   0.41846691  0.64435239  0.28957332
   0.49206822  0.44237544  0.79637388
   0.11719952  0.14151915  0.28856203
   0.02107664  0.09192141  0.93411976
   0.05452885  0.55266509  0.47970181
   0.16963556  0.67494757  0.92965631
   0.58917511  0.10724115  0.40206695
   0.67363676  0.15863420  0.77735978
   0.76930555  0.71446793  0.44026832
   0.65317635  0.55517809  0.00704403
   0.94661662  0.24462067  0.04153450
   0.05741537  0.27360567  0.45669166
   0.97155025  0.77389048  0.94753668
   0.97253150  0.76899524  0.45296799
   0.46503398  0.11304059  0.89051232
   0.51025976  0.25269474  0.52700190
   0.45143843  0.75933684  0.03421821
   0.47981403  0.69423942  0.48042692
   0.40697462  0.43812440  0.40300784
   0.31851404  0.30421094  0.85986226
   0.33562891  0.82412301  0.27457425
   0.37615792  0.91310596  0.84533594
   0.81177637  0.42478032  0.33393619
   0.93101890  0.41462678  0.90174172
   0.87804046  0.90960973  0.30603950
   0.82556149  0.92765230  0.83706572
   0.24057719  0.05825600  0.96859079
   0.21104509  0.02983273  0.46881861
   0.29583010  0.39923762  0.06128682
   0.27685452  0.50133952  0.57377059
   0.78173635  0.99428787  0.07916619
   0.77369027  0.00763141  0.45190762
   0.80799282  0.59868355  0.87295052
   0.79123254  0.48046898  0.54043192
   0.46214658  0.11651491  0.18729902
   0.37373661  0.12856631  0.56042971
   0.27463033  0.63787250  0.10049037
   0.40821009  0.62102749  0.69527994
   0.73794145  0.20501228  0.07555036
   0.89885519  0.13521495  0.57644947
   0.90229151  0.63901848  0.08891637
   0.93817648  0.54986066  0.68109649
   0.32924752  0.25395084  0.29122692
   0.18694690  0.09722329  0.67140541
   0.10183975  0.74236965  0.24807461
   0.28946586  0.74854184  0.75640552
   0.57202647  0.30807434  0.26802815
   0.87186019  0.25308748  0.75643920
   0.76837332  0.66344497  0.23818280
   0.78279303  0.76135354  0.70161158
Direct configuration=     9
   0.07358780  0.32590014  0.19562056
   0.20158854  0.31838189  0.65511647
   0.13082321  0.91321495  0.05772804
   0.12063972  0.86534986  0.64738639
   0.59194293  0.50646459  0.25697232
   0.66356607  0.34547217  0.66769580
   0.65967697  0.82134131  0.15016046
   0.66360196  0.86667436  0.55169755
   0.95575787  0.05871232  0.14509783
   0.98986414  0.01768974  0.74166473
  -0.00012271  0.49312842  0.28872095
   0.11701582  0.51417619  0.79197153
   0.51155190  0.92169992  0.28101361
   0.54747046  0.98149539  0.71070177
   0.41707551  0.64672024  0.29081518
   0.49228606  0.44333278  0.79633711
   0.11876552  0.14424352  0.28654577
   0.02190605  0.09064135  0.93300648
   0.05355107  0.55179277  0.47970407
   0.17103605  0.67806991  0.92971974
   0.59305338  0.10745679  0.40076509
   0.67327662  0.16016412  0.77478269
   0.77293184  0.71651463  0.44402253
   0.65509161  0.55420640  0.00601625
   0.94510220  0.24326878  0.04337610
   0.05890646  0.27140262  0.45886352
   0.97469609  0.77167010  0.94722020
   0.97269796  0.76648442  0.45343012
   0.46392085  0.11329970  0.89065169
   0.50890293  0.25555863  0.52790032
   0.45024378  0.75711016  0.03611046
   0.48199556  0.68724483  0.48088485
   0.40868862  0.44297587  0.40426441
   0.31827441  0.30459823  0.85963483
   0.33812814  0.82627824  0.27557546
   0.37619115  0.90985464  0.84878074
   0.81079099  0.42435341  0.33189163
   0.93133726  0.41680952  0.90205437
   0.88007760  0.91220605  0.30663612
   0.82274758  0.92891066  0.84007823
   0.24014315  0.06239704  0.96384314
   0.20831486  0.03126925  0.46817799
   0.29783602  0.39721353  0.06671323
   0.27623755  0.49914518  0.57122487
   0.78255044  0.99352861  0.08179052
   0.77593433  0.00502496  0.45700689
   0.80388068  0.59758487  0.87115795
   0.79036057  0.48042163  0.54692625
   0.45996605  0.11436338  0.18709424
   0.37557483  0.12883449  0.56014552
   0.27274792  0.63427770  0.09839161
   0.41265560  0.61961114  0.69331976
   0.73533427  0.20164436  0.07472500
   0.89308609  0.13526244  0.57590462
   0.90144865  0.64020172  0.08375356
   0.93841993  0.54573545  0.68047240
   0.33071146  0.25768335  0.29158237
   0.18773541  0.09395109  0.67067826
   0.09974298  0.74172964  0.24923117
   0.28582420  0.75098361  0.75481723
   0.56968100  0.31078025  0.26867701
   0.86954165  0.25445916  0.75715503
   0.76776357  0.66248526  0.23822720
   0.78586882  0.76654221  0.69836822
Direct configuration=    10
   0.07459889  0.32462786  0.19613519
   0.20646678  0.31489075  0.65743502
   0.12915496  0.91194069  0.05497270
   0.12006789  0.86318031  0.64739352
   0.58949901  0.51048959  0.25840072
   0.66341726  0.34906384  0.66933690
   0.65966751  0.82378037  0.15110541
   0.66517984  0.86299269  0.54780580
   0.95449366  0.05924034  0.14086008
   0.99242825  0.01654167  0.73993028
  -0.00234757  0.49610630  0.28757120
   0.11727334  0.51709069  0.79114691
   0.51313826  0.92068526  0.28005519
   0.54499053  0.98015605  0.71148598
   0.41598493  0.64818220  0.29183100
   0.49271684  0.44424156  0.79643130
   0.12059862  0.14674492  0.28480028
   0.02313750  0.08926293  0.93181141
   0.05289968  0.55109696  0.47997223
   0.17210430  0.68122758  0.92922013
   0.59678567  0.10765613  0.39918335
   0.67288351  0.16142022  0.77254637
   0.77634847  0.71813438  0.44771527
   0.65651074  0.55316824  0.00517090
   0.94342030  0.24264984  0.04528072
   0.06025033  0.26914696  0.46122606
   0.97784317  0.76982571  0.94670959
   0.97349016  0.76397750  0.45417234
   0.46271233  0.11388675  0.89096383
   0.50838532  0.25946399  0.52857202
   0.44920212  0.75511677  0.03799744
   0.48445298  0.68049579  0.48180501
   0.41051559  0.44759938  0.40542900
   0.31825676  0.30494145  0.85943238
   0.33960675  0.82873427  0.27646640
   0.37659278  0.90686089  0.85257080
   0.80939626  0.42387908  0.33008489
   0.93171206  0.41903426  0.90215835
   0.88220452  0.91455216  0.30687324
   0.81994890  0.92991991  0.84332103
   0.23997379  0.06666780  0.95898647
   0.20556246  0.03242876  0.46730748
   0.29956240  0.39516716  0.07231797
   0.27539822  0.49706435  0.56861637
   0.78256422  0.99232467  0.08386348
   0.77810392  0.00297499  0.46202250
   0.80001070  0.59669073  0.86920822
   0.78934279  0.48039731  0.55315572
   0.45794504  0.11233862  0.18685717
   0.37684800  0.12819368  0.56022318
   0.27118047  0.63039055  0.09674485
   0.41758368  0.61758347  0.69082602
   0.73243780  0.19838427  0.07393364
   0.88782324  0.13551437  0.57547329
   0.90085952  0.64101718  0.07880433
   0.93861320  0.54192851  0.67980028
   0.33204871  0.26148809  0.29179145
   0.18842537  0.09095862  0.67010135
   0.09785709  0.74124129  0.25011762
   0.28135813  0.75396430  0.75344755
   0.56745586  0.31259575  0.26924479
   0.86712420  0.25580711  0.75791725
   0.76684890  0.66144528  0.23844836
   0.78908307  0.77142690  0.69541047
Direct configuration=    11
   0.07586838  0.32372586  0.19622019
   0.21120488  0.31148593  0.65986050
   0.12724493  0.91056925  0.05245817
   0.11936969  0.86098809  0.64700741
   0.58730461  0.51516150  0.25959888
   0.66283905  0.35275695  0.67098662
   0.65944280  0.82626491  0.15197543
   0.66595350  0.85900942  0.54435117
   0.95415012  0.05945721  0.13744254
   0.99484764  0.01538321  0.73780209
  -0.00443518  0.49914772  0.28610106
   0.11753121  0.51956169  0.79043372
   0.51518871  0.92013919  0.27916185
   0.54252035  0.97890614  0.71209436
   0.41514150  0.64881894  0.29256937
   0.49335594  0.44506747  0.79669771
   0.12268937  0.14888423  0.28335938
   0.02467873  0.08787789  0.93054864
   0.05257563  0.55052763  0.48047703
   0.17288179  0.68435889  0.92816574
   0.60029428  0.10790392  0.39739971
   0.67242932  0.16233297  0.77065407
   0.77951390  0.71919522  0.45116152
   0.65735391  0.55202958  0.00458663
   0.94159984  0.24276999  0.04712525
   0.06142601  0.26683471  0.46377241
   0.98094358  0.76850248  0.94592512
   0.97499536  0.76154687  0.45517823
   0.46141550  0.11477620  0.89142208
   0.50865363  0.26424970  0.52897542
   0.44829580  0.75335848  0.03987863
   0.48716604  0.67401026  0.48316712
   0.41245711  0.45195013  0.40649347
   0.31846737  0.30522889  0.85932326
   0.34001746  0.83146994  0.27724031
   0.37733080  0.90414890  0.85668263
   0.80760016  0.42336372  0.32861045
   0.93214349  0.42127254  0.90210323
   0.88439756  0.91665614  0.30680507
   0.81727497  0.93074909  0.84673209
   0.24004887  0.07094399  0.95411875
   0.20285121  0.03332610  0.46619924
   0.30098322  0.39309602  0.07800543
   0.27434853  0.49515084  0.56605989
   0.78169361  0.99063839  0.08535857
   0.78018619  0.00143730  0.46676256
   0.79648556  0.59603491  0.86701270
   0.78815675  0.48038782  0.55886299
   0.45609588  0.11046550  0.18660316
   0.37764803  0.12670076  0.56062642
   0.26996033  0.62623162  0.09559215
   0.42256923  0.61529785  0.68794565
   0.72929106  0.19530023  0.07316953
   0.88321036  0.13604256  0.57528141
   0.90036735  0.64137957  0.07423131
   0.93884166  0.53847404  0.67916537
   0.33328962  0.26531132  0.29181856
   0.18902043  0.08828451  0.66970058
   0.09617278  0.74089844  0.25073912
   0.27649573  0.75711122  0.75214761
   0.56537243  0.31360489  0.26972265
   0.86463961  0.25714209  0.75870107
   0.76570136  0.66035165  0.23882956
   0.79244049  0.77594651  0.69279713
Direct configuration=    12
   0.07731437  0.32337141  0.19587922
   0.21579530  0.30820832  0.66233131
   0.12518614  0.90920362  0.05014776
   0.11846659  0.85881556  0.64619783
   0.58537647  0.52027868  0.26055916
   0.66182387  0.35646524  0.67267701
   0.65905658  0.82865034  0.15276618
   0.66579056  0.85485843  0.54139784
   0.95474942  0.05933432  0.13488911
   0.99698923  0.01422659  0.73535334
  -0.00635747  0.50218153  0.28434054
   0.11780510  0.52159847  0.78984547
   0.51762493  0.92006367  0.27838062
   0.54008739  0.97776573  0.71253739
   0.41446364  0.64880507  0.29302639
   0.49419371  0.44578207  0.79717197
   0.12503112  0.15055732  0.28225418
   0.02642981  0.08656018  0.92923285
   0.05256975  0.55003324  0.48117664
   0.17345752  0.68738269  0.92662214
   0.60353783  0.10823766  0.39547537
   0.67188976  0.16284911  0.76909127
   0.78243667  0.71957462  0.45421079
   0.65757464  0.55076655  0.00432128
   0.93966249  0.24360194  0.04880747
   0.06242323  0.26445866  0.46648970
   0.98393467  0.76780593  0.94481157
   0.97727442  0.75924865  0.45642936
   0.46004994  0.11593719  0.89199799
   0.50954683  0.26967639  0.52911283
   0.44749996  0.75182408  0.04174959
   0.49011694  0.66781637  0.48487788
   0.41449750  0.45598401  0.40746602
   0.31891200  0.30545529  0.85937307
   0.33941062  0.83443730  0.27790453
   0.37835037  0.90171339  0.86107413
   0.80544204  0.42281719  0.32751212
   0.93263271  0.42350121  0.90193447
   0.88662710  0.91853496  0.30649623
   0.81479467  0.93145649  0.85024300
   0.24036168  0.07513097  0.94931374
   0.20023288  0.03398112  0.46484602
   0.30207510  0.39099138  0.08369642
   0.27310710  0.49344223  0.56364468
   0.77998182  0.98849941  0.08629124
   0.78214807  0.00028734  0.47107953
   0.79337688  0.59563318  0.86451875
   0.78677488  0.48040419  0.56385571
   0.45441589  0.10875703  0.18633699
   0.37816576  0.12451426  0.56129703
   0.26908539  0.62184929  0.09490629
   0.42728993  0.61299194  0.68480442
   0.72593270  0.19243835  0.07243860
   0.87936689  0.13693889  0.57544181
   0.89983263  0.64123031  0.07014348
   0.93919326  0.53539324  0.67864458
   0.33446503  0.26909679  0.29163423
   0.18953585  0.08595556  0.66949093
   0.09468106  0.74068717  0.25111136
   0.27160664  0.76018517  0.75084939
   0.56345955  0.31396045  0.27010197
   0.86211665  0.25848017  0.75948797
   0.76438842  0.65923728  0.23934188
   0.79593754  0.78007481  0.69055742
Direct configuration=    13
   0.07886932  0.32367657  0.19512453
   0.22023436  0.30508913  0.66478516
   0.12305840  0.90792485  0.04802880
   0.11726336  0.85671295  0.64492719
   0.58374002  0.52561076  0.26126933
   0.66036529  0.36009824  0.67444556
   0.65855043  0.83077252  0.15347570