unknown system                          
   1.00000000000000     
     1.248385   -2.162266    0.000000
     1.248385    2.162266    0.000000
     0.000000    0.000000    6.668627
   C 
     2
Direct
   0.333333  0.166667  0.500000
   0.666667  0.833333  0.500000
 
   32   32   96
 0.14338E-03 0.14493E-03 0.14827E-03 0.15059E-03 0.15001E-03 0.14687E-03 0.14305E-03 0.14030E-03 0.13939E-03 0.14045E-03
 0.14331E-03 0.14717E-03 0.15028E-03 0.15077E-03 0.14833E-03 0.14491E-03 0.14332E-03 0.14491E-03 0.14833E-03 0.15077E-03
 0.15028E-03 0.14717E-03 0.14331E-03 0.14045E-03 0.13939E-03 0.14030E-03 0.14305E-03 0.14687E-03 0.15001E-03 0.15059E-03
 0.14827E-03 0.14493E-03 0.14618E-03 0.14491E-03 0.14518E-03 0.14497E-03 0.14291E-03 0.13920E-03 0.13506E-03 0.13173E-03
 0.12993E-03 0.12993E-03 0.13172E-03 0.13509E-03 0.13929E-03 0.14305E-03 0.14512E-03 0.14528E-03 0.14491E-03 0.14609E-03
 0.14966E-03 0.15409E-03 0.15657E-03 0.15543E-03 0.15142E-03 0.14690E-03 0.14404E-03 0.14392E-03 0.14660E-03 0.15105E-03
 0.15512E-03 0.15642E-03 0.15409E-03 0.14975E-03 0.15094E-03 0.14969E-03 0.14826E-03 0.14502E-03 0.13972E-03 0.13337E-03
 0.12701E-03 0.12125E-03 0.11694E-03 0.11524E-03 0.11677E-03 0.12098E-03 0.12677E-03 0.13326E-03 0.13975E-03 0.14512E-03
 0.14833E-03 0.14966E-03 0.15080E-03 0.15310E-03 0.15580E-03 0.15664E-03 0.15421E-03 0.14945E-03 0.14492E-03 0.14304E-03
 0.14476E-03 0.14920E-03 0.15401E-03 0.15657E-03 0.15588E-03 0.15326E-03 0.15090E-03 0.15315E-03 0.15405E-03 0.15070E-03
 0.14308E-03 0.13345E-03 0.12365E-03 0.11398E-03 0.10504E-03 0.99215E-04 0.99080E-04 0.10469E-03 0.11355E-03 0.12330E-03
 0.13326E-03 0.14305E-03 0.15077E-03 0.15409E-03 0.15310E-03 0.15074E-03 0.14993E-03 0.15068E-03 0.15061E-03 0.14800E-03
 0.14374E-03 0.14050E-03 0.14047E-03 0.14369E-03 0.14798E-03 0.15068E-03 0.15084E-03 0.15013E-03 0.14439E-03 0.14998E-03
 0.15576E-03 0.15651E-03 0.15027E-03 0.13941E-03 0.12703E-03 0.11391E-03 0.10007E-03 0.88252E-04 0.83377E-04 0.88041E-04
 0.99728E-04 0.11355E-03 0.12677E-03 0.13929E-03 0.15028E-03 0.15657E-03 0.15580E-03 0.14993E-03 0.14425E-03 0.14245E-03
 0.14364E-03 0.14433E-03 0.14253E-03 0.13951E-03 0.13807E-03 0.13957E-03 0.14265E-03 0.14451E-03 0.14386E-03 0.14265E-03
 0.13807E-03 0.14245E-03 0.15061E-03 0.15655E-03 0.15535E-03 0.14715E-03 0.13513E-03 0.12108E-03 0.10480E-03 0.88135E-04
 0.76906E-04 0.76870E-04 0.88041E-04 0.10469E-03 0.12098E-03 0.13509E-03 0.14717E-03 0.15543E-03 0.15664E-03 0.15068E-03
 0.14245E-03 0.13799E-03 0.13905E-03 0.14230E-03 0.14355E-03 0.14187E-03 0.13972E-03 0.13977E-03 0.14201E-03 0.14373E-03
 0.14249E-03 0.13920E-03 0.14006E-03 0.13897E-03 0.14354E-03 0.15051E-03 0.15412E-03 0.15132E-03 0.14318E-03 0.13156E-03
 0.11658E-03 0.98908E-04 0.83275E-04 0.76906E-04 0.83377E-04 0.99080E-04 0.11677E-03 0.13172E-03 0.14331E-03 0.15142E-03
 0.15421E-03 0.15061E-03 0.14364E-03 0.13905E-03 0.14008E-03 0.14461E-03 0.14781E-03 0.14710E-03 0.14418E-03 0.14264E-03
 0.14426E-03 0.14723E-03 0.14792E-03 0.14466E-03 0.14971E-03 0.14444E-03 0.14213E-03 0.14422E-03 0.14796E-03 0.14942E-03
 0.14681E-03 0.14023E-03 0.12958E-03 0.11486E-03 0.98908E-04 0.88135E-04 0.88252E-04 0.99215E-04 0.11524E-03 0.12993E-03
 0.14045E-03 0.14690E-03 0.14945E-03 0.14800E-03 0.14433E-03 0.14230E-03 0.14461E-03 0.14982E-03 0.15355E-03 0.15274E-03
 0.14841E-03 0.14458E-03 0.14461E-03 0.14848E-03 0.15279E-03 0.15353E-03 0.15695E-03 0.15334E-03 0.14760E-03 0.14343E-03
 0.14254E-03 0.14384E-03 0.14502E-03 0.14401E-03 0.13918E-03 0.12958E-03 0.11658E-03 0.10480E-03 0.10007E-03 0.10504E-03
 0.11694E-03 0.12993E-03 0.13939E-03 0.14404E-03 0.14492E-03 0.14374E-03 0.14253E-03 0.14355E-03 0.14781E-03 0.15355E-03
 0.15708E-03 0.15573E-03 0.15024E-03 0.14428E-03 0.14177E-03 0.14433E-03 0.15028E-03 0.15570E-03 0.15432E-03 0.15557E-03
 0.15257E-03 0.14701E-03 0.14191E-03 0.13969E-03 0.14075E-03 0.14326E-03 0.14401E-03 0.14023E-03 0.13156E-03 0.12108E-03
 0.11391E-03 0.11398E-03 0.12125E-03 0.13173E-03 0.14030E-03 0.14392E-03 0.14304E-03 0.14050E-03 0.13951E-03 0.14187E-03
 0.14710E-03 0.15274E-03 0.15573E-03 0.15440E-03 0.14953E-03 0.14375E-03 0.13998E-03 0.14000E-03 0.14377E-03 0.14952E-03
 0.14738E-03 0.14946E-03 0.15019E-03 0.14841E-03 0.14426E-03 0.13989E-03 0.13831E-03 0.14075E-03 0.14502E-03 0.14681E-03
 0.14318E-03 0.13513E-03 0.12703E-03 0.12365E-03 0.12701E-03 0.13506E-03 0.14305E-03 0.14660E-03 0.14476E-03 0.14047E-03
 0.13807E-03 0.13972E-03 0.14418E-03 0.14841E-03 0.15024E-03 0.14953E-03 0.14744E-03 0.14526E-03 0.14373E-03 0.14319E-03
 0.14371E-03 0.14522E-03 0.14864E-03 0.14522E-03 0.14379E-03 0.14439E-03 0.14472E-03 0.14279E-03 0.13989E-03 0.13969E-03
 0.14384E-03 0.14942E-03 0.15132E-03 0.14715E-03 0.13941E-03 0.13345E-03 0.13337E-03 0.13920E-03 0.14687E-03 0.15105E-03
 0.14920E-03 0.14369E-03 0.13957E-03 0.13977E-03 0.14264E-03 0.14458E-03 0.14428E-03 0.14375E-03 0.14526E-03 0.14873E-03
 0.15224E-03 0.15422E-03 0.15418E-03 0.15215E-03 0.16049E-03 0.15220E-03 0.14379E-03 0.14013E-03 0.14195E-03 0.14472E-03
 0.14426E-03 0.14191E-03 0.14254E-03 0.14796E-03 0.15412E-03 0.15535E-03 0.15027E-03 0.14308E-03 0.13972E-03 0.14291E-03
 0.15001E-03 0.15512E-03 0.15401E-03 0.14798E-03 0.14265E-03 0.14201E-03 0.14426E-03 0.14461E-03 0.14177E-03 0.13998E-03
 0.14373E-03 0.15224E-03 0.16058E-03 0.16527E-03 0.16650E-03 0.16519E-03 0.16973E-03 0.16525E-03 0.15427E-03 0.14331E-03
 0.14013E-03 0.14439E-03 0.14841E-03 0.14701E-03 0.14343E-03 0.14422E-03 0.15051E-03 0.15655E-03 0.15651E-03 0.15070E-03
 0.14502E-03 0.14497E-03 0.15059E-03 0.15642E-03 0.15657E-03 0.15068E-03 0.14451E-03 0.14373E-03 0.14723E-03 0.14848E-03
 0.14433E-03 0.14000E-03 0.14319E-03 0.15422E-03 0.16527E-03 0.16977E-03 0.16939E-03 0.16937E-03 0.16316E-03 0.16943E-03
 0.16657E-03 0.15427E-03 0.14379E-03 0.14379E-03 0.15019E-03 0.15257E-03 0.14760E-03 0.14213E-03 0.14354E-03 0.15061E-03
 0.15576E-03 0.15405E-03 0.14826E-03 0.14518E-03 0.14827E-03 0.15409E-03 0.15588E-03 0.15084E-03 0.14386E-03 0.14249E-03
 0.14792E-03 0.15279E-03 0.15028E-03 0.14377E-03 0.14371E-03 0.15418E-03 0.16650E-03 0.16939E-03 0.16315E-03 0.15883E-03
 0.14562E-03 0.15887E-03 0.16943E-03 0.16525E-03 0.15220E-03 0.14522E-03 0.14946E-03 0.15557E-03 0.15334E-03 0.14444E-03
 0.13897E-03 0.14245E-03 0.14998E-03 0.15315E-03 0.14969E-03 0.14491E-03 0.14493E-03 0.14975E-03 0.15326E-03 0.15013E-03
 0.14265E-03 0.13920E-03 0.14466E-03 0.15353E-03 0.15570E-03 0.14952E-03 0.14522E-03 0.15215E-03 0.16519E-03 0.16937E-03
 0.15883E-03 0.14560E-03 0.13619E-03 0.14562E-03 0.16316E-03 0.16973E-03 0.16049E-03 0.14864E-03 0.14738E-03 0.15432E-03
 0.15695E-03 0.14971E-03 0.14006E-03 0.13807E-03 0.14439E-03 0.15090E-03 0.15094E-03 0.14618E-03 0.14338E-03 0.14618E-03
 0.15094E-03 0.15090E-03 0.14439E-03 0.13807E-03 0.14006E-03 0.14971E-03 0.15695E-03 0.15432E-03 0.14738E-03 0.14864E-03
 0.16049E-03 0.16973E-03 0.16316E-03 0.14562E-03 0.14562E-03 0.14560E-03 0.15883E-03 0.16937E-03 0.16519E-03 0.15215E-03
 0.14522E-03 0.14952E-03 0.15570E-03 0.15353E-03 0.14466E-03 0.13920E-03 0.14265E-03 0.15013E-03 0.15326E-03 0.14975E-03
 0.14493E-03 0.14491E-03 0.14969E-03 0.15315E-03 0.14998E-03 0.14245E-03 0.13897E-03 0.14444E-03 0.15334E-03 0.15557E-03
 0.14946E-03 0.14522E-03 0.15220E-03 0.16525E-03 0.16943E-03 0.15887E-03 0.16316E-03 0.15883E-03 0.16315E-03 0.16939E-03
 0.16650E-03 0.15418E-03 0.14371E-03 0.14377E-03 0.15028E-03 0.15279E-03 0.14792E-03 0.14249E-03 0.14386E-03 0.15084E-03
 0.15588E-03 0.15409E-03 0.14827E-03 0.14518E-03 0.14826E-03 0.15405E-03 0.15576E-03 0.15061E-03 0.14354E-03 0.14213E-03
 0.14760E-03 0.15257E-03 0.15019E-03 0.14379E-03 0.14379E-03 0.15427E-03 0.16657E-03 0.16943E-03 0.16973E-03 0.16937E-03
 0.16939E-03 0.16977E-03 0.16527E-03 0.15422E-03 0.14319E-03 0.14000E-03 0.14433E-03 0.14848E-03 0.14723E-03 0.14373E-03
 0.14451E-03 0.15068E-03 0.15657E-03 0.15642E-03 0.15059E-03 0.14497E-03 0.14502E-03 0.15070E-03 0.15651E-03 0.15655E-03
 0.15051E-03 0.14422E-03 0.14343E-03 0.14701E-03 0.14841E-03 0.14439E-03 0.14013E-03 0.14331E-03 0.15427E-03 0.16525E-03
 0.16049E-03 0.16519E-03 0.16650E-03 0.16527E-03 0.16058E-03 0.15224E-03 0.14373E-03 0.13998E-03 0.14177E-03 0.14461E-03
 0.14426E-03 0.14201E-03 0.14265E-03 0.14798E-03 0.15401E-03 0.15512E-03 0.15001E-03 0.14291E-03 0.13972E-03 0.14308E-03
 0.15027E-03 0.15535E-03 0.15412E-03 0.14796E-03 0.14254E-03 0.14191E-03 0.14426E-03 0.14472E-03 0.14195E-03 0.14013E-03
 0.14379E-03 0.15220E-03 0.14864E-03 0.15215E-03 0.15418E-03 0.15422E-03 0.15224E-03 0.14873E-03 0.14526E-03 0.14375E-03
 0.14428E-03 0.14458E-03 0.14264E-03 0.13977E-03 0.13957E-03 0.14369E-03 0.14920E-03 0.15105E-03 0.14687E-03 0.13920E-03
 0.13337E-03 0.13345E-03 0.13941E-03 0.14715E-03 0.15132E-03 0.14942E-03 0.14384E-03 0.13969E-03 0.13989E-03 0.14279E-03
 0.14472E-03 0.14439E-03 0.14379E-03 0.14522E-03 0.14738E-03 0.14522E-03 0.14371E-03 0.14319E-03 0.14373E-03 0.14526E-03
 0.14744E-03 0.14953E-03 0.15024E-03 0.14841E-03 0.14418E-03 0.13972E-03 0.13807E-03 0.14047E-03 0.14476E-03 0.14660E-03
 0.14305E-03 0.13506E-03 0.12701E-03 0.12365E-03 0.12703E-03 0.13513E-03 0.14318E-03 0.14681E-03 0.14502E-03 0.14075E-03
 0.13831E-03 0.13989E-03 0.14426E-03 0.14841E-03 0.15019E-03 0.14946E-03 0.15432E-03 0.14952E-03 0.14377E-03 0.14000E-03
 0.13998E-03 0.14375E-03 0.14953E-03 0.15440E-03 0.15573E-03 0.15274E-03 0.14710E-03 0.14187E-03 0.13951E-03 0.14050E-03
 0.14304E-03 0.14392E-03 0.14030E-03 0.13173E-03 0.12125E-03 0.11398E-03 0.11391E-03 0.12108E-03 0.13156E-03 0.14023E-03
 0.14401E-03 0.14326E-03 0.14075E-03 0.13969E-03 0.14191E-03 0.14701E-03 0.15257E-03 0.15557E-03 0.15695E-03 0.15570E-03
 0.15028E-03 0.14433E-03 0.14177E-03 0.14428E-03 0.15024E-03 0.15573E-03 0.15708E-03 0.15355E-03 0.14781E-03 0.14355E-03
 0.14253E-03 0.14374E-03 0.14492E-03 0.14404E-03 0.13939E-03 0.12993E-03 0.11694E-03 0.10504E-03 0.10007E-03 0.10480E-03
 0.11658E-03 0.12958E-03 0.13918E-03 0.14401E-03 0.14502E-03 0.14384E-03 0.14254E-03 0.14343E-03 0.14760E-03 0.15334E-03
 0.14971E-03 0.15353E-03 0.15279E-03 0.14848E-03 0.14461E-03 0.14458E-03 0.14841E-03 0.15274E-03 0.15355E-03 0.14982E-03
 0.14461E-03 0.14230E-03 0.14433E-03 0.14800E-03 0.14945E-03 0.14690E-03 0.14045E-03 0.12993E-03 0.11524E-03 0.99215E-04
 0.88252E-04 0.88135E-04 0.98908E-04 0.11486E-03 0.12958E-03 0.14023E-03 0.14681E-03 0.14942E-03 0.14796E-03 0.14422E-03
 0.14213E-03 0.14444E-03 0.14006E-03 0.14466E-03 0.14792E-03 0.14723E-03 0.14426E-03 0.14264E-03 0.14418E-03 0.14710E-03
 0.14781E-03 0.14461E-03 0.14008E-03 0.13905E-03 0.14364E-03 0.15061E-03 0.15421E-03 0.15142E-03 0.14331E-03 0.13172E-03
 0.11677E-03 0.99080E-04 0.83377E-04 0.76906E-04 0.83275E-04 0.98908E-04 0.11658E-03 0.13156E-03 0.14318E-03 0.15132E-03
 0.15412E-03 0.15051E-03 0.14354E-03 0.13897E-03 0.13807E-03 0.13920E-03 0.14249E-03 0.14373E-03 0.14201E-03 0.13977E-03
 0.13972E-03 0.14187E-03 0.14355E-03 0.14230E-03 0.13905E-03 0.13799E-03 0.14245E-03 0.15068E-03 0.15664E-03 0.15543E-03
 0.14717E-03 0.13509E-03 0.12098E-03 0.10469E-03 0.88041E-04 0.76870E-04 0.76906E-04 0.88135E-04 0.10480E-03 0.12108E-03
 0.13513E-03 0.14715E-03 0.15535E-03 0.15655E-03 0.15061E-03 0.14245E-03 0.14439E-03 0.14265E-03 0.14386E-03 0.14451E-03
 0.14265E-03 0.13957E-03 0.13807E-03 0.13951E-03 0.14253E-03 0.14433E-03 0.14364E-03 0.14245E-03 0.14425E-03 0.14993E-03
 0.15580E-03 0.15657E-03 0.15028E-03 0.13929E-03 0.12677E-03 0.11355E-03 0.99728E-04 0.88041E-04 0.83377E-04 0.88252E-04
 0.10007E-03 0.11391E-03 0.12703E-03 0.13941E-03 0.15027E-03 0.15651E-03 0.15576E-03 0.14998E-03 0.15090E-03 0.15013E-03
 0.15084E-03 0.15068E-03 0.14798E-03 0.14369E-03 0.14047E-03 0.14050E-03 0.14374E-03 0.14800E-03 0.15061E-03 0.15068E-03
 0.14993E-03 0.15074E-03 0.15310E-03 0.15409E-03 0.15077E-03 0.14305E-03 0.13326E-03 0.12330E-03 0.11355E-03 0.10469E-03
 0.99080E-04 0.99215E-04 0.10504E-03 0.11398E-03 0.12365E-03 0.13345E-03 0.14308E-03 0.15070E-03 0.15405E-03 0.15315E-03
 0.15094E-03 0.15326E-03 0.15588E-03 0.15657E-03 0.15401E-03 0.14920E-03 0.14476E-03 0.14304E-03 0.14492E-03 0.14945E-03
 0.15421E-03 0.15664E-03 0.15580E-03 0.15310E-03 0.15080E-03 0.14966E-03 0.14833E-03 0.14512E-03 0.13975E-03 0.13326E-03
 0.12677E-03 0.12098E-03 0.11677E-03 0.11524E-03 0.11694E-03 0.12125E-03 0.12701E-03 0.13337E-03 0.13972E-03 0.14502E-03
 0.14826E-03 0.14969E-03 0.14618E-03 0.14975E-03 0.15409E-03 0.15642E-03 0.15512E-03 0.15105E-03 0.14660E-03 0.14392E-03
 0.14404E-03 0.14690E-03 0.15142E-03 0.15543E-03 0.15657E-03 0.15409E-03 0.14966E-03 0.14609E-03 0.14491E-03 0.14528E-03
 0.14512E-03 0.14305E-03 0.13929E-03 0.13509E-03 0.13172E-03 0.12993E-03 0.12993E-03 0.13173E-03 0.13506E-03 0.13920E-03
 0.14291E-03 0.14497E-03 0.14518E-03 0.14491E-03 0.19348E-03 0.19701E-03 0.20531E-03 0.21338E-03 0.21730E-03 0.21662E-03
 0.21362E-03 0.21090E-03 0.20991E-03 0.21102E-03 0.21382E-03 0.21685E-03 0.21750E-03 0.21352E-03 0.20537E-03 0.19700E-03
 0.19344E-03 0.19700E-03 0.20537E-03 0.21352E-03 0.21750E-03 0.21685E-03 0.21382E-03 0.21102E-03 0.20991E-03 0.21090E-03
 0.21362E-03 0.21662E-03 0.21730E-03 0.21338E-03 0.20531E-03 0.19701E-03 0.19655E-03 0.19700E-03 0.20268E-03 0.20959E-03
 0.21376E-03 0.21375E-03 0.21080E-03 0.20726E-03 0.20502E-03 0.20502E-03 0.20725E-03 0.21082E-03 0.21382E-03 0.21387E-03
 0.20971E-03 0.20275E-03 0.19700E-03 0.19649E-03 0.20214E-03 0.21072E-03 0.21731E-03 0.21896E-03 0.21639E-03 0.21247E-03
 0.20984E-03 0.20975E-03 0.21224E-03 0.21610E-03 0.21873E-03 0.21719E-03 0.21073E-03 0.20221E-03 0.20297E-03 0.20216E-03
 0.20531E-03 0.20963E-03 0.21206E-03 0.21108E-03 0.20695E-03 0.20127E-03 0.19635E-03 0.19436E-03 0.19621E-03 0.20106E-03
 0.20676E-03 0.21099E-03 0.21209E-03 0.20971E-03 0.20537E-03 0.20214E-03 0.20286E-03 0.20770E-03 0.21360E-03 0.21661E-03
 0.21507E-03 0.21054E-03 0.20612E-03 0.20431E-03 0.20599E-03 0.21035E-03 0.21491E-03 0.21656E-03 0.21366E-03 0.20783E-03
 0.20706E-03 0.20775E-03 0.21069E-03 0.21347E-03 0.21389E-03 0.21114E-03 0.20525E-03 0.19681E-03 0.18785E-03 0.18183E-03
 0.18173E-03 0.18758E-03 0.19648E-03 0.20497E-03 0.21099E-03 0.21387E-03 0.21352E-03 0.21072E-03 0.20770E-03 0.20694E-03
 0.20885E-03 0.21108E-03 0.21065E-03 0.20680E-03 0.20152E-03 0.19785E-03 0.19783E-03 0.20148E-03 0.20679E-03 0.21071E-03
 0.21120E-03 0.20900E-03 0.20617E-03 0.20888E-03 0.21357E-03 0.21726E-03 0.21750E-03 0.21391E-03 0.20697E-03 0.19676E-03
 0.18423E-03 0.17308E-03 0.16847E-03 0.17292E-03 0.18397E-03 0.19648E-03 0.20676E-03 0.21382E-03 0.21750E-03 0.21731E-03
 0.21360E-03 0.20885E-03 0.20606E-03 0.20586E-03 0.20595E-03 0.20378E-03 0.19919E-03 0.19453E-03 0.19259E-03 0.19457E-03
 0.19929E-03 0.20392E-03 0.20612E-03 0.20601E-03 0.20383E-03 0.20585E-03 0.21103E-03 0.21654E-03 0.21891E-03 0.21684E-03
 0.21085E-03 0.20113E-03 0.18767E-03 0.17299E-03 0.16297E-03 0.16295E-03 0.17292E-03 0.18758E-03 0.20106E-03 0.21082E-03
 0.21685E-03 0.21896E-03 0.21661E-03 0.21108E-03 0.20586E-03 0.20377E-03 0.20423E-03 0.20416E-03 0.20144E-03 0.19695E-03
 0.19356E-03 0.19359E-03 0.19705E-03 0.20158E-03 0.20431E-03 0.20434E-03 0.20597E-03 0.20417E-03 0.20588E-03 0.21057E-03
 0.21500E-03 0.21632E-03 0.21372E-03 0.20712E-03 0.19607E-03 0.18160E-03 0.16839E-03 0.16297E-03 0.16847E-03 0.18173E-03
 0.19621E-03 0.20725E-03 0.21382E-03 0.21639E-03 0.21507E-03 0.21065E-03 0.20595E-03 0.20423E-03 0.20598E-03 0.20835E-03
 0.20804E-03 0.20450E-03 0.20019E-03 0.19832E-03 0.20025E-03 0.20459E-03 0.20813E-03 0.20839E-03 0.21344E-03 0.20822E-03
 0.20404E-03 0.20370E-03 0.20676E-03 0.21052E-03 0.21240E-03 0.21084E-03 0.20475E-03 0.19406E-03 0.18160E-03 0.17299E-03
 0.17308E-03 0.18183E-03 0.19436E-03 0.20502E-03 0.21102E-03 0.21247E-03 0.21054E-03 0.20680E-03 0.20378E-03 0.20416E-03
 0.20835E-03 0.21353E-03 0.21583E-03 0.21372E-03 0.20910E-03 0.20554E-03 0.20556E-03 0.20916E-03 0.21375E-03 0.21581E-03
 0.22058E-03 0.21566E-03 0.20788E-03 0.20135E-03 0.19920E-03 0.20160E-03 0.20620E-03 0.20982E-03 0.20975E-03 0.20475E-03
 0.19607E-03 0.18767E-03 0.18423E-03 0.18785E-03 0.19635E-03 0.20502E-03 0.20991E-03 0.20984E-03 0.20612E-03 0.20152E-03
 0.19919E-03 0.20144E-03 0.20804E-03 0.21583E-03 0.22069E-03 0.22060E-03 0.21686E-03 0.21272E-03 0.21099E-03 0.21275E-03
 0.21690E-03 0.22058E-03 0.22307E-03 0.22048E-03 0.21358E-03 0.20442E-03 0.19698E-03 0.19467E-03 0.19805E-03 0.20448E-03
 0.20982E-03 0.21084E-03 0.20712E-03 0.20113E-03 0.19676E-03 0.19681E-03 0.20127E-03 0.20726E-03 0.21090E-03 0.20975E-03
 0.20431E-03 0.19785E-03 0.19453E-03 0.19695E-03 0.20450E-03 0.21372E-03 0.22060E-03 0.22314E-03 0.22212E-03 0.21983E-03
 0.21823E-03 0.21825E-03 0.21985E-03 0.22211E-03 0.22537E-03 0.22206E-03 0.21682E-03 0.20910E-03 0.20026E-03 0.19369E-03
 0.19278E-03 0.19805E-03 0.20620E-03 0.21240E-03 0.21372E-03 0.21085E-03 0.20697E-03 0.20525E-03 0.20695E-03 0.21080E-03
 0.21362E-03 0.21224E-03 0.20599E-03 0.19783E-03 0.19259E-03 0.19356E-03 0.20019E-03 0.20910E-03 0.21686E-03 0.22212E-03
 0.22541E-03 0.22773E-03 0.22936E-03 0.22998E-03 0.22935E-03 0.22770E-03 0.23592E-03 0.22770E-03 0.21986E-03 0.21280E-03
 0.20565E-03 0.19843E-03 0.19369E-03 0.19467E-03 0.20160E-03 0.21052E-03 0.21632E-03 0.21684E-03 0.21391E-03 0.21114E-03
 0.21108E-03 0.21375E-03 0.21662E-03 0.21610E-03 0.21035E-03 0.20148E-03 0.19457E-03 0.19359E-03 0.19832E-03 0.20554E-03
 0.21272E-03 0.21983E-03 0.22773E-03 0.23599E-03 0.24284E-03 0.24661E-03 0.24658E-03 0.24277E-03 0.25423E-03 0.24280E-03
 0.22941E-03 0.21835E-03 0.21113E-03 0.20565E-03 0.20026E-03 0.19698E-03 0.19920E-03 0.20676E-03 0.21500E-03 0.21891E-03
 0.21750E-03 0.21389E-03 0.21206E-03 0.21376E-03 0.21730E-03 0.21873E-03 0.21491E-03 0.20679E-03 0.19929E-03 0.19705E-03
 0.20025E-03 0.20556E-03 0.21099E-03 0.21823E-03 0.22936E-03 0.24284E-03 0.25431E-03 0.26091E-03 0.26283E-03 0.26084E-03
 0.26751E-03 0.26089E-03 0.24665E-03 0.23008E-03 0.21835E-03 0.21280E-03 0.20910E-03 0.20442E-03 0.20135E-03 0.20370E-03
 0.21057E-03 0.21654E-03 0.21726E-03 0.21347E-03 0.20963E-03 0.20959E-03 0.21338E-03 0.21719E-03 0.21656E-03 0.21071E-03
 0.20392E-03 0.20158E-03 0.20459E-03 0.20916E-03 0.21275E-03 0.21825E-03 0.22998E-03 0.24661E-03 0.26091E-03 0.26755E-03
 0.26845E-03 0.26843E-03 0.26444E-03 0.26848E-03 0.26289E-03 0.24665E-03 0.22941E-03 0.21986E-03 0.21682E-03 0.21358E-03
 0.20788E-03 0.20404E-03 0.20588E-03 0.21103E-03 0.21357E-03 0.21069E-03 0.20531E-03 0.20268E-03 0.20531E-03 0.21073E-03
 0.21366E-03 0.21120E-03 0.20612E-03 0.20431E-03 0.20813E-03 0.21375E-03 0.21690E-03 0.21985E-03 0.22935E-03 0.24658E-03
 0.26283E-03 0.26845E-03 0.26443E-03 0.26106E-03 0.25016E-03 0.26109E-03 0.26848E-03 0.26089E-03 0.24280E-03 0.22770E-03
 0.22206E-03 0.22048E-03 0.21566E-03 0.20822E-03 0.20417E-03 0.20585E-03 0.20888E-03 0.20775E-03 0.20216E-03 0.19700E-03
 0.19701E-03 0.20221E-03 0.20783E-03 0.20900E-03 0.20601E-03 0.20434E-03 0.20839E-03 0.21581E-03 0.22058E-03 0.22211E-03
 0.22770E-03 0.24277E-03 0.26084E-03 0.26843E-03 0.26106E-03 0.25015E-03 0.24217E-03 0.25016E-03 0.26444E-03 0.26751E-03
 0.25423E-03 0.23592E-03 0.22537E-03 0.22307E-03 0.22058E-03 0.21344E-03 0.20597E-03 0.20383E-03 0.20617E-03 0.20706E-03
 0.20297E-03 0.19655E-03 0.19348E-03 0.19655E-03 0.20297E-03 0.20706E-03 0.20617E-03 0.20383E-03 0.20597E-03 0.21344E-03
 0.22058E-03 0.22307E-03 0.22537E-03 0.23592E-03 0.25423E-03 0.26751E-03 0.26444E-03 0.25016E-03 0.25016E-03 0.25015E-03
 0.26106E-03 0.26843E-03 0.26084E-03 0.24277E-03 0.22770E-03 0.22211E-03 0.22058E-03 0.21581E-03 0.20839E-03 0.20434E-03
 0.20601E-03 0.20900E-03 0.20783E-03 0.20221E-03 0.19701E-03 0.19700E-03 0.20216E-03 0.20775E-03 0.20888E-03 0.20585E-03
 0.20417E-03 0.20822E-03 0.21566E-03 0.22048E-03 0.22206E-03 0.22770E-03 0.24280E-03 0.26089E-03 0.26848E-03 0.26109E-03
 0.26444E-03 0.26106E-03 0.26443E-03 0.26845E-03 0.26283E-03 0.24658E-03 0.22935E-03 0.21985E-03 0.21690E-03 0.21375E-03
 0.20813E-03 0.20431E-03 0.20612E-03 0.21120E-03 0.21366E-03 0.21073E-03 0.20531E-03 0.20268E-03 0.20531E-03 0.21069E-03
 0.21357E-03 0.21103E-03 0.20588E-03 0.20404E-03 0.20788E-03 0.21358E-03 0.21682E-03 0.21986E-03 0.22941E-03 0.24665E-03
 0.26289E-03 0.26848E-03 0.26751E-03 0.26843E-03 0.26845E-03 0.26755E-03 0.26091E-03 0.24661E-03 0.22998E-03 0.21825E-03
 0.21275E-03 0.20916E-03 0.20459E-03 0.20158E-03 0.20392E-03 0.21071E-03 0.21656E-03 0.21719E-03 0.21338E-03 0.20959E-03
 0.20963E-03 0.21347E-03 0.21726E-03 0.21654E-03 0.21057E-03 0.20370E-03 0.20135E-03 0.20442E-03 0.20910E-03 0.21280E-03
 0.21835E-03 0.23008E-03 0.24665E-03 0.26089E-03 0.25423E-03 0.26084E-03 0.26283E-03 0.26091E-03 0.25431E-03 0.24284E-03
 0.22936E-03 0.21823E-03 0.21099E-03 0.20556E-03 0.20025E-03 0.19705E-03 0.19929E-03 0.20679E-03 0.21491E-03 0.21873E-03
 0.21730E-03 0.21376E-03 0.21206E-03 0.21389E-03 0.21750E-03 0.21891E-03 0.21500E-03 0.20676E-03 0.19920E-03 0.19698E-03
 0.20026E-03 0.20565E-03 0.21113E-03 0.21835E-03 0.22941E-03 0.24280E-03 0.23592E-03 0.24277E-03 0.24658E-03 0.24661E-03
 0.24284E-03 0.23599E-03 0.22773E-03 0.21983E-03 0.21272E-03 0.20554E-03 0.19832E-03 0.19359E-03 0.19457E-03 0.20148E-03
 0.21035E-03 0.21610E-03 0.21662E-03 0.21375E-03 0.21108E-03 0.21114E-03 0.21391E-03 0.21684E-03 0.21632E-03 0.21052E-03
 0.20160E-03 0.19467E-03 0.19369E-03 0.19843E-03 0.20565E-03 0.21280E-03 0.21986E-03 0.22770E-03 0.22537E-03 0.22770E-03
 0.22935E-03 0.22998E-03 0.22936E-03 0.22773E-03 0.22541E-03 0.22212E-03 0.21686E-03 0.20910E-03 0.20019E-03 0.19356E-03
 0.19259E-03 0.19783E-03 0.20599E-03 0.21224E-03 0.21362E-03 0.21080E-03 0.20695E-03 0.20525E-03 0.20697E-03 0.21085E-03
 0.21372E-03 0.21240E-03 0.20620E-03 0.19805E-03 0.19278E-03 0.19369E-03 0.20026E-03 0.20910E-03 0.21682E-03 0.22206E-03
 0.22307E-03 0.22211E-03 0.21985E-03 0.21825E-03 0.21823E-03 0.21983E-03 0.22212E-03 0.22314E-03 0.22060E-03 0.21372E-03
 0.20450E-03 0.19695E-03 0.19453E-03 0.19785E-03 0.20431E-03 0.20975E-03 0.21090E-03 0.20726E-03 0.20127E-03 0.19681E-03
 0.19676E-03 0.20113E-03 0.20712E-03 0.21084E-03 0.20982E-03 0.20448E-03 0.19805E-03 0.19467E-03 0.19698E-03 0.20442E-03
 0.21358E-03 0.22048E-03 0.22058E-03 0.22058E-03 0.21690E-03 0.21275E-03 0.21099E-03 0.21272E-03 0.21686E-03 0.22060E-03
 0.22069E-03 0.21583E-03 0.20804E-03 0.20144E-03 0.19919E-03 0.20152E-03 0.20612E-03 0.20984E-03 0.20991E-03 0.20502E-03
 0.19635E-03 0.18785E-03 0.18423E-03 0.18767E-03 0.19607E-03 0.20475E-03 0.20975E-03 0.20982E-03 0.20620E-03 0.20160E-03
 0.19920E-03 0.20135E-03 0.20788E-03 0.21566E-03 0.21344E-03 0.21581E-03 0.21375E-03 0.20916E-03 0.20556E-03 0.20554E-03
 0.20910E-03 0.21372E-03 0.21583E-03 0.21353E-03 0.20835E-03 0.20416E-03 0.20378E-03 0.20680E-03 0.21054E-03 0.21247E-03
 0.21102E-03 0.20502E-03 0.19436E-03 0.18183E-03 0.17308E-03 0.17299E-03 0.18160E-03 0.19406E-03 0.20475E-03 0.21084E-03
 0.21240E-03 0.21052E-03 0.20676E-03 0.20370E-03 0.20404E-03 0.20822E-03 0.20597E-03 0.20839E-03 0.20813E-03 0.20459E-03
 0.20025E-03 0.19832E-03 0.20019E-03 0.20450E-03 0.20804E-03 0.20835E-03 0.20598E-03 0.20423E-03 0.20595E-03 0.21065E-03
 0.21507E-03 0.21639E-03 0.21382E-03 0.20725E-03 0.19621E-03 0.18173E-03 0.16847E-03 0.16297E-03 0.16839E-03 0.18160E-03
 0.19607E-03 0.20712E-03 0.21372E-03 0.21632E-03 0.21500E-03 0.21057E-03 0.20588E-03 0.20417E-03 0.20383E-03 0.20434E-03
 0.20431E-03 0.20158E-03 0.19705E-03 0.19359E-03 0.19356E-03 0.19695E-03 0.20144E-03 0.20416E-03 0.20423E-03 0.20377E-03
 0.20586E-03 0.21108E-03 0.21661E-03 0.21896E-03 0.21685E-03 0.21082E-03 0.20106E-03 0.18758E-03 0.17292E-03 0.16295E-03
 0.16297E-03 0.17299E-03 0.18767E-03 0.20113E-03 0.21085E-03 0.21684E-03 0.21891E-03 0.21654E-03 0.21103E-03 0.20585E-03
 0.20617E-03 0.20601E-03 0.20612E-03 0.20392E-03 0.19929E-03 0.19457E-03 0.19259E-03 0.19453E-03 0.19919E-03 0.20378E-03
 0.20595E-03 0.20586E-03 0.20606E-03 0.20885E-03 0.21360E-03 0.21731E-03 0.21750E-03 0.21382E-03 0.20676E-03 0.19648E-03
 0.18397E-03 0.17292E-03 0.16847E-03 0.17308E-03 0.18423E-03 0.19676E-03 0.20697E-03 0.21391E-03 0.21750E-03 0.21726E-03
 0.21357E-03 0.20888E-03 0.20706E-03 0.20900E-03 0.21120E-03 0.21071E-03 0.20679E-03 0.20148E-03 0.19783E-03 0.19785E-03
 0.20152E-03 0.20680E-03 0.21065E-03 0.21108E-03 0.20885E-03 0.20694E-03 0.20770E-03 0.21072E-03 0.21352E-03 0.21387E-03
 0.21099E-03 0.20497E-03 0.19648E-03 0.18758E-03 0.18173E-03 0.18183E-03 0.18785E-03 0.19681E-03 0.20525E-03 0.21114E-03
 0.21389E-03 0.21347E-03 0.21069E-03 0.20775E-03 0.20297E-03 0.20783E-03 0.21366E-03 0.21656E-03 0.21491E-03 0.21035E-03
 0.20599E-03 0.20431E-03 0.20612E-03 0.21054E-03 0.21507E-03 0.21661E-03 0.21360E-03 0.20770E-03 0.20286E-03 0.20214E-03
 0.20537E-03 0.20971E-03 0.21209E-03 0.21099E-03 0.20676E-03 0.20106E-03 0.19621E-03 0.19436E-03 0.19635E-03 0.20127E-03
 0.20695E-03 0.21108E-03 0.21206E-03 0.20963E-03 0.20531E-03 0.20216E-03 0.19655E-03 0.20221E-03 0.21073E-03 0.21719E-03
 0.21873E-03 0.21610E-03 0.21224E-03 0.20975E-03 0.20984E-03 0.21247E-03 0.21639E-03 0.21896E-03 0.21731E-03 0.21072E-03
 0.20214E-03 0.19649E-03 0.19700E-03 0.20275E-03 0.20971E-03 0.21387E-03 0.21382E-03 0.21082E-03 0.20725E-03 0.20502E-03
 0.20502E-03 0.20726E-03 0.21080E-03 0.21375E-03 0.21376E-03 0.20959E-03 0.20268E-03 0.19700E-03 0.38731E-03 0.39523E-03
 0.41469E-03 0.43590E-03 0.45044E-03 0.45585E-03 0.45501E-03 0.45245E-03 0.45127E-03 0.45248E-03 0.45506E-03 0.45591E-03
 0.45050E-03 0.43593E-03 0.41470E-03 0.39523E-03 0.38730E-03 0.39523E-03 0.41470E-03 0.43593E-03 0.45050E-03 0.45591E-03
 0.45506E-03 0.45248E-03 0.45127E-03 0.45245E-03 0.45501E-03 0.45585E-03 0.45044E-03 0.43590E-03 0.41469E-03 0.39523E-03
 0.39119E-03 0.39523E-03 0.41278E-03 0.43563E-03 0.45413E-03 0.46312E-03 0.46361E-03 0.46017E-03 0.45725E-03 0.45725E-03
 0.46016E-03 0.46361E-03 0.46313E-03 0.45416E-03 0.43567E-03 0.41281E-03 0.39523E-03 0.39116E-03 0.40159E-03 0.41961E-03
 0.43560E-03 0.44371E-03 0.44430E-03 0.44144E-03 0.43903E-03 0.43900E-03 0.44137E-03 0.44422E-03 0.44365E-03 0.43557E-03
 0.41962E-03 0.40162E-03 0.40158E-03 0.40160E-03 0.41468E-03 0.43564E-03 0.45536E-03 0.46676E-03 0.46839E-03 0.46375E-03
 0.45816E-03 0.45578E-03 0.45812E-03 0.46369E-03 0.46833E-03 0.46674E-03 0.45538E-03 0.43567E-03 0.41470E-03 0.40159E-03
 0.40154E-03 0.41204E-03 0.42492E-03 0.43248E-03 0.43239E-03 0.42761E-03 0.42271E-03 0.42075E-03 0.42267E-03 0.42756E-03
 0.43234E-03 0.43247E-03 0.42495E-03 0.41209E-03 0.41462E-03 0.41205E-03 0.41960E-03 0.43592E-03 0.45417E-03 0.46678E-03
 0.46995E-03 0.46503E-03 0.45690E-03 0.45106E-03 0.45104E-03 0.45683E-03 0.46495E-03 0.46989E-03 0.46674E-03 0.45416E-03
 0.43593E-03 0.41961E-03 0.41204E-03 0.41459E-03 0.42207E-03 0.42684E-03 0.42457E-03 0.41666E-03 0.40786E-03 0.40243E-03
 0.40243E-03 0.40785E-03 0.41666E-03 0.42458E-03 0.42687E-03 0.42211E-03 0.42495E-03 0.42207E-03 0.42492E-03 0.43560E-03
 0.45051E-03 0.46316E-03 0.46839E-03 0.46501E-03 0.45611E-03 0.44723E-03 0.44355E-03 0.44720E-03 0.45606E-03 0.46495E-03
 0.46833E-03 0.46313E-03 0.45050E-03 0.43560E-03 0.42492E-03 0.42207E-03 0.42494E-03 0.42723E-03 0.42347E-03 0.41321E-03
 0.40064E-03 0.39096E-03 0.38742E-03 0.39098E-03 0.40068E-03 0.41325E-03 0.42351E-03 0.42726E-03 0.42921E-03 0.42722E-03
 0.42682E-03 0.43246E-03 0.44370E-03 0.45591E-03 0.46362E-03 0.46370E-03 0.45685E-03 0.44721E-03 0.44038E-03 0.44038E-03
 0.44720E-03 0.45683E-03 0.46369E-03 0.46361E-03 0.45591E-03 0.44371E-03 0.43248E-03 0.42684E-03 0.42723E-03 0.42920E-03
 0.42681E-03 0.41746E-03 0.40380E-03 0.39115E-03 0.38387E-03 0.38388E-03 0.39118E-03 0.40384E-03 0.41750E-03 0.42683E-03
 0.42877E-03 0.42680E-03 0.42346E-03 0.42455E-03 0.43236E-03 0.44428E-03 0.45503E-03 0.46013E-03 0.45809E-03 0.45101E-03
 0.44354E-03 0.44038E-03 0.44355E-03 0.45104E-03 0.45812E-03 0.46016E-03 0.45506E-03 0.44430E-03 0.43239E-03 0.42457E-03
 0.42347E-03 0.42681E-03 0.42877E-03 0.42460E-03 0.41434E-03 0.40225E-03 0.39316E-03 0.38988E-03 0.39317E-03 0.40226E-03
 0.41436E-03 0.42461E-03 0.42831E-03 0.42458E-03 0.41744E-03 0.41319E-03 0.41664E-03 0.42760E-03 0.44141E-03 0.45243E-03
 0.45718E-03 0.45571E-03 0.45101E-03 0.44721E-03 0.44723E-03 0.45106E-03 0.45578E-03 0.45725E-03 0.45248E-03 0.44144E-03
 0.42761E-03 0.41666E-03 0.41321E-03 0.41746E-03 0.42460E-03 0.42833E-03 0.42562E-03 0.41843E-03 0.41104E-03 0.40674E-03
 0.40674E-03 0.41104E-03 0.41842E-03 0.42561E-03 0.43213E-03 0.42558E-03 0.41430E-03 0.40377E-03 0.40064E-03 0.40788E-03
 0.42273E-03 0.43902E-03 0.45123E-03 0.45718E-03 0.45809E-03 0.45685E-03 0.45611E-03 0.45690E-03 0.45816E-03 0.45725E-03
 0.45127E-03 0.43903E-03 0.42271E-03 0.40786E-03 0.40064E-03 0.40380E-03 0.41434E-03 0.42562E-03 0.43216E-03 0.43304E-03
 0.43100E-03 0.42898E-03 0.42826E-03 0.42899E-03 0.43100E-03 0.43304E-03 0.44280E-03 0.43301E-03 0.41838E-03 0.40222E-03
 0.39116E-03 0.39100E-03 0.40249E-03 0.42080E-03 0.43902E-03 0.45243E-03 0.46013E-03 0.46370E-03 0.46501E-03 0.46503E-03
 0.46375E-03 0.46017E-03 0.45245E-03 0.43900E-03 0.42075E-03 0.40243E-03 0.39096E-03 0.39115E-03 0.40225E-03 0.41843E-03
 0.43304E-03 0.44281E-03 0.44838E-03 0.45167E-03 0.45346E-03 0.45347E-03 0.45169E-03 0.44839E-03 0.46190E-03 0.44837E-03
 0.43098E-03 0.41103E-03 0.39317E-03 0.38391E-03 0.38748E-03 0.40249E-03 0.42273E-03 0.44141E-03 0.45503E-03 0.46362E-03
 0.46839E-03 0.46995E-03 0.46839E-03 0.46361E-03 0.45501E-03 0.44137E-03 0.42267E-03 0.40243E-03 0.38742E-03 0.38387E-03
 0.39316E-03 0.41104E-03 0.43100E-03 0.44838E-03 0.46190E-03 0.47200E-03 0.47869E-03 0.48110E-03 0.47869E-03 0.47201E-03
 0.48864E-03 0.47200E-03 0.45168E-03 0.42901E-03 0.40677E-03 0.38991E-03 0.38391E-03 0.39100E-03 0.40788E-03 0.42760E-03
 0.44428E-03 0.45591E-03 0.46316E-03 0.46678E-03 0.46676E-03 0.46312E-03 0.45585E-03 0.44422E-03 0.42756E-03 0.40785E-03
 0.39098E-03 0.38388E-03 0.38988E-03 0.40674E-03 0.42898E-03 0.45167E-03 0.47200E-03 0.48866E-03 0.50061E-03 0.50690E-03
 0.50689E-03 0.50059E-03 0.51646E-03 0.50060E-03 0.47870E-03 0.45350E-03 0.42831E-03 0.40677E-03 0.39317E-03 0.39116E-03
 0.40064E-03 0.41664E-03 0.43236E-03 0.44370E-03 0.45051E-03 0.45417E-03 0.45536E-03 0.45413E-03 0.45044E-03 0.44365E-03