unknown system                          
   1.00000000000000     
     1.236187   -2.141138   -0.000000
     1.236187    2.141138    0.000000
     0.000000    0.000000    6.321422
   C 
     2
Direct
   0.333333  0.166667  0.500000
   0.666667  0.833333  0.500000
 
   32   32   96
 0.98027316930E-04 0.99811748676E-04 0.10372145877E-03 0.10677710065E-03 0.10711811737E-03
 0.10529330679E-03 0.10315033264E-03 0.10191221003E-03 0.10160724692E-03 0.10200819055E-03
 0.10331799819E-03 0.10549194516E-03 0.10730371417E-03 0.10691629289E-03 0.10380165855E-03
 0.99844067343E-04 0.98041354768E-04 0.99844065836E-04 0.10380165646E-03 0.10691629181E-03
 0.10730371558E-03 0.10549194950E-03 0.10331800408E-03 0.10200819515E-03 0.10160724752E-03
 0.10191220595E-03 0.10315032593E-03 0.10529330113E-03 0.10711811581E-03 0.10677710371E-03
 0.10372146414E-03 0.99811752662E-04 0.99187130687E-04 0.99817879999E-04 0.10281830215E-03
 0.10567820397E-03 0.10643166871E-03 0.10508948789E-03 0.10307971581E-03 0.10166863826E-03
 0.10110228413E-03 0.10108546176E-03 0.10163421915E-03 0.10306478946E-03 0.10512614837E-03
 0.10652296175E-03 0.10579228928E-03 0.10290601036E-03 0.99844066462E-04 0.99156743907E-04
 0.10163891103E-03 0.10543929556E-03 0.10764887377E-03 0.10681232483E-03 0.10384708685E-03
 0.10075626763E-03 0.98942686236E-04 0.98854439688E-04 0.10052651557E-03 0.10356355086E-03
 0.10657294226E-03 0.10751650078E-03 0.10541698667E-03 0.10167727037E-03 0.10134465826E-03
 0.10168234899E-03 0.10376624913E-03 0.10573168878E-03 0.10608142865E-03 0.10463243659E-03
 0.10213033066E-03 0.99497060539E-04 0.97500658345E-04 0.96706239674E-04 0.97359667990E-04
 0.99282037940E-04 0.10193760041E-03 0.10453443280E-03 0.10608874880E-03 0.10579228920E-03
 0.10380165744E-03 0.10163891153E-03 0.10122896146E-03 0.10306367018E-03 0.10542851488E-03
 0.10580809105E-03 0.10314127947E-03 0.98636970549E-04 0.94633821650E-04 0.93019120278E-04
 0.94485061890E-04 0.98412170349E-04 0.10294622350E-03 0.10572494737E-03 0.10547426379E-03
 0.10318671045E-03 0.10177266058E-03 0.10315892327E-03 0.10545688663E-03 0.10690201754E-03
 0.10655494904E-03 0.10467599958E-03 0.10166192136E-03 0.97586631036E-04 0.93084975571E-04
 0.89917177434E-04 0.89819803183E-04 0.92832622812E-04 0.97278102938E-04 0.10140484557E-03
 0.10453443376E-03 0.10652296274E-03 0.10691629274E-03 0.10543929622E-03 0.10306367045E-03
 0.10161110314E-03 0.10182546767E-03 0.10227082560E-03 0.10065731647E-03 0.96225757879E-04
 0.90654652897E-04 0.86814417955E-04 0.86780335788E-04 0.90577980956E-04 0.96167223624E-04
 0.10067461354E-03 0.10238173148E-03 0.10199524898E-03 0.99317854069E-04 0.10190400233E-03
 0.10543922046E-03 0.10762628662E-03 0.10730668847E-03 0.10520870967E-03 0.10211821925E-03
 0.97524267368E-04 0.91044771374E-04 0.84608874282E-04 0.81792739305E-04 0.84462600693E-04
 0.90806846401E-04 0.97278103713E-04 0.10193760250E-03 0.10512615115E-03 0.10730371616E-03
 0.10764887424E-03 0.10542851509E-03 0.10182546768E-03 0.99174376665E-04 0.98310643377E-04
 0.97496502676E-04 0.94397831518E-04 0.88820982977E-04 0.83261898965E-04 0.80941399627E-04
 0.83295500755E-04 0.88897062582E-04 0.94523157276E-04 0.97662030079E-04 0.98486158084E-04
 0.96350265068E-04 0.98322243918E-04 0.10222334686E-03 0.10573088874E-03 0.10674192316E-03
 0.10545916048E-03 0.10308376514E-03 0.99345425568E-04 0.92914926839E-04 0.84530594584E-04
 0.78250031464E-04 0.78223834279E-04 0.84462600213E-04 0.92832623167E-04 0.99282040225E-04
 0.10306479356E-03 0.10549194972E-03 0.10681232502E-03 0.10580809102E-03 0.10227082537E-03
 0.98310643160E-04 0.96267639002E-04 0.95895730787E-04 0.94554347697E-04 0.90267676539E-04
 0.84134953608E-04 0.79623849125E-04 0.79667574624E-04 0.84255508222E-04 0.90435953133E-04
 0.94730412378E-04 0.96039577073E-04 0.96464558698E-04 0.95824326074E-04 0.97384670795E-04
 0.10053614301E-03 0.10302866878E-03 0.10374260914E-03 0.10321025808E-03 0.10151492748E-03
 0.97235007040E-04 0.89711670739E-04 0.81729046165E-04 0.78250030676E-04 0.81792737639E-04
 0.89819801811E-04 0.97359668644E-04 0.10163422280E-03 0.10331800416E-03 0.10384708693E-03
 0.10314127931E-03 0.10065731606E-03 0.97496502164E-04 0.95895730418E-04 0.96467235601E-04
 0.96968119649E-04 0.94492632563E-04 0.88687022037E-04 0.82507423803E-04 0.79888230410E-04
 0.82590440769E-04 0.88818339510E-04 0.94618969390E-04 0.97041526832E-04 0.99401398641E-04
 0.96819705030E-04 0.94393941787E-04 0.94271617925E-04 0.96147910206E-04 0.98580313637E-04
 0.10066914207E-03 0.10184837039E-03 0.10085135072E-03 0.96446482679E-04 0.89711670984E-04
 0.84530593895E-04 0.84608871955E-04 0.89917174172E-04 0.96706237493E-04 0.10108546271E-03
 0.10200819539E-03 0.10075626790E-03 0.98636970542E-04 0.96225757542E-04 0.94397830910E-04
 0.94554347083E-04 0.96968119287E-04 0.99488673717E-04 0.98902148858E-04 0.93930382512E-04
 0.86756875826E-04 0.81584726511E-04 0.81614861195E-04 0.86826120837E-04 0.93987835875E-04
 0.98897365218E-04 0.99990111522E-04 0.98717633099E-04 0.94311672092E-04 0.90159034452E-04
 0.88816978238E-04 0.90727440242E-04 0.94705899247E-04 0.98928046423E-04 0.10146114895E-03
 0.10085135143E-03 0.97235008340E-04 0.92914927546E-04 0.91044770063E-04 0.93084971887E-04
 0.97500653748E-04 0.10110228126E-03 0.10160724808E-03 0.98942686872E-04 0.94633822066E-04
 0.90654652919E-04 0.88820982594E-04 0.90267675954E-04 0.94492632027E-04 0.98902148569E-04
 0.10011486224E-03 0.96444992835E-04 0.89369360978E-04 0.82643481354E-04 0.79923820589E-04
 0.82671204844E-04 0.89386943529E-04 0.96403384617E-04 0.94423759826E-04 0.96296914984E-04
 0.93784652258E-04 0.88614553196E-04 0.84185588660E-04 0.83431943064E-04 0.87041238022E-04
 0.93208593306E-04 0.98928046363E-04 0.10184837119E-03 0.10151492953E-03 0.99345428033E-04
 0.97524268440E-04 0.97586629153E-04 0.99497055732E-04 0.10166863262E-03 0.10191220667E-03
 0.98854440608E-04 0.93019121145E-04 0.86814418470E-04 0.83261899078E-04 0.84134953354E-04
 0.88687021627E-04 0.93930382157E-04 0.96444992668E-04 0.94521251818E-04 0.89099230825E-04
 0.82958808790E-04 0.79026091756E-04 0.79032349322E-04 0.82961830316E-04 0.89064262825E-04
 0.86566589294E-04 0.89032826311E-04 0.89315864807E-04 0.86755117270E-04 0.82590336582E-04
 0.79799864148E-04 0.81185518439E-04 0.87041237439E-04 0.94705898402E-04 0.10066914190E-03
 0.10321025959E-03 0.10308376833E-03 0.10211822266E-03 0.10166192271E-03 0.10213032836E-03
 0.10307971029E-03 0.10315032640E-03 0.10052651641E-03 0.94485062910E-04 0.86780336709E-04
 0.80941400213E-04 0.79623849349E-04 0.82507423750E-04 0.86756875662E-04 0.89369360847E-04
 0.89099230776E-04 0.86618561641E-04 0.83467731773E-04 0.81033443958E-04 0.80134191908E-04
 0.81022558878E-04 0.83438835749E-04 0.84418118364E-04 0.83458052378E-04 0.82996019709E-04
 0.82727217070E-04 0.81700408110E-04 0.80017630163E-04 0.79799864011E-04 0.83431942237E-04
 0.90727438618E-04 0.98580312020E-04 0.10374260886E-03 0.10545916252E-03 0.10520871371E-03
 0.10467600364E-03 0.10463243814E-03 0.10508948545E-03 0.10529330104E-03 0.10356355126E-03
 0.98412171127E-04 0.90577981894E-04 0.83295501575E-04 0.79667575205E-04 0.79888230733E-04
 0.81584726640E-04 0.82643481404E-04 0.82958808852E-04 0.83467731827E-04 0.84457536531E-04
 0.85399440412E-04 0.85866243820E-04 0.85849112902E-04 0.85358350892E-04 0.89315379105E-04
 0.85393235384E-04 0.81100795093E-04 0.79154075282E-04 0.80061094490E-04 0.81700408366E-04
 0.82590336852E-04 0.84185588316E-04 0.88816976728E-04 0.96147907776E-04 0.10302866653E-03
 0.10674192271E-03 0.10730669077E-03 0.10655495348E-03 0.10608143305E-03 0.10643167045E-03
 0.10711811512E-03 0.10657294200E-03 0.10294622370E-03 0.96167224168E-04 0.88897063264E-04
 0.84255508845E-04 0.82590441252E-04 0.81614861523E-04 0.79923820811E-04 0.79026091928E-04
 0.81033444097E-04 0.85399440486E-04 0.89365506692E-04 0.91225564363E-04 0.91577236711E-04
 0.91181829221E-04 0.92301524698E-04 0.91205198768E-04 0.85911308783E-04 0.80243367259E-04
 0.79154075349E-04 0.82727217507E-04 0.86755118049E-04 0.88614553789E-04 0.90159034047E-04
 0.94271616046E-04 0.10053613998E-03 0.10573088599E-03 0.10762628587E-03 0.10690201972E-03
 0.10573169320E-03 0.10567820841E-03 0.10677710267E-03 0.10751649994E-03 0.10572494689E-03
 0.10067461351E-03 0.94523157529E-04 0.90435953489E-04 0.88818339879E-04 0.86826121152E-04
 0.82671205067E-04 0.79032349517E-04 0.80134192074E-04 0.85866243946E-04 0.91225564449E-04
 0.92347094715E-04 0.90927984860E-04 0.90905729655E-04 0.84665842733E-04 0.90909176092E-04
 0.91594178458E-04 0.85911308573E-04 0.81100794855E-04 0.82996019838E-04 0.89315865583E-04
 0.93784653529E-04 0.94311673129E-04 0.94393941641E-04 0.97384668855E-04 0.10222334357E-03
 0.10543921730E-03 0.10545688546E-03 0.10376625085E-03 0.10281830620E-03 0.10372146311E-03
 0.10541698559E-03 0.10547426289E-03 0.10238173090E-03 0.97662029809E-04 0.94730412314E-04
 0.94618969442E-04 0.93987835953E-04 0.89386943589E-04 0.82961830366E-04 0.81022558921E-04
 0.85849112939E-04 0.91577236756E-04 0.90927984879E-04 0.84688446289E-04 0.80980874751E-04
 0.70300404713E-04 0.80973105697E-04 0.90909176023E-04 0.91205198362E-04 0.85393234668E-04
 0.83458051743E-04 0.89032826303E-04 0.96296915965E-04 0.98717634840E-04 0.96819706705E-04
 0.95824326465E-04 0.98322242330E-04 0.10190399906E-03 0.10315891979E-03 0.10168234716E-03
 0.99817880923E-04 0.99811752051E-04 0.10167726948E-03 0.10318670951E-03 0.10199524815E-03
 0.98486157455E-04 0.96039576693E-04 0.97041526601E-04 0.98897365024E-04 0.96403384411E-04
 0.89064262614E-04 0.83438835531E-04 0.85358350718E-04 0.91181829105E-04 0.90905729594E-04
 0.80980874726E-04 0.70305194837E-04 0.62953220049E-04 0.70300404970E-04 0.84665842952E-04
 0.92301524491E-04 0.89315378221E-04 0.84418116991E-04 0.86566588010E-04 0.94423759418E-04
 0.99990112501E-04 0.99401400862E-04 0.96464561171E-04 0.96350266350E-04 0.99317853156E-04
 0.10177265755E-03 0.10134465448E-03 0.99187128086E-04 0.98027316945E-04 0.99187130303E-04
 0.10134465758E-03 0.10177265985E-03 0.99317853397E-04 0.96350264538E-04 0.96464558325E-04
 0.99401398295E-04 0.99990111126E-04 0.94423759377E-04 0.86566588790E-04 0.84418117893E-04
 0.89315378705E-04 0.92301524426E-04 0.84665842581E-04 0.70300404648E-04 0.70300404891E-04
 0.70305195484E-04 0.80980875571E-04 0.90905730164E-04 0.91181828854E-04 0.85358349423E-04
 0.83438833451E-04 0.89064260552E-04 0.96403383475E-04 0.98897366039E-04 0.97041529509E-04
 0.96039580498E-04 0.98486160510E-04 0.10199524899E-03 0.10318670780E-03 0.10167726630E-03
 0.99811749301E-04 0.99817880240E-04 0.10168234884E-03 0.10315892290E-03 0.10190400189E-03
 0.98322243545E-04 0.95824325765E-04 0.96819704762E-04 0.98717632723E-04 0.96296914467E-04
 0.89032825627E-04 0.83458051618E-04 0.85393234672E-04 0.91205198200E-04 0.90909175715E-04
 0.80973105494E-04 0.84665842785E-04 0.80980875526E-04 0.84688447702E-04 0.90927986417E-04
 0.91577237622E-04 0.85849112413E-04 0.81022556687E-04 0.82961826849E-04 0.89386939976E-04
 0.93987833750E-04 0.94618969836E-04 0.94730415455E-04 0.97662034509E-04 0.10238173512E-03
 0.10547426471E-03 0.10541698436E-03 0.10372145984E-03 0.10281830294E-03 0.10376624954E-03
 0.10545688674E-03 0.10543922038E-03 0.10222334678E-03 0.97384670802E-04 0.94393941815E-04
 0.94311671994E-04 0.93784651929E-04 0.89315864185E-04 0.82996018867E-04 0.81100794170E-04
 0.85911307934E-04 0.91594177821E-04 0.90909175638E-04 0.92301524186E-04 0.90905730089E-04
 0.90927986427E-04 0.92347097138E-04 0.91225566895E-04 0.85866245308E-04 0.80134191351E-04
 0.79032346332E-04 0.82671200039E-04 0.86826115821E-04 0.88818336245E-04 0.90435953132E-04
 0.94523160712E-04 0.10067461892E-03 0.10572495207E-03 0.10751650249E-03 0.10677710173E-03
 0.10567820505E-03 0.10573168957E-03 0.10690201805E-03 0.10762628693E-03 0.10573088901E-03
 0.10053614337E-03 0.94271618359E-04 0.90159034796E-04 0.88614553288E-04 0.86755116991E-04
 0.82727216402E-04 0.79154074363E-04 0.80243366274E-04 0.85911307725E-04 0.91205197770E-04
 0.89315377808E-04 0.91181828739E-04 0.91577237662E-04 0.91225566955E-04 0.89365510402E-04
 0.85399444119E-04 0.81033446167E-04 0.79026091140E-04 0.79923816780E-04 0.81614855036E-04
 0.82590434264E-04 0.84255503813E-04 0.88897062128E-04 0.96167227305E-04 0.10294622957E-03
 0.10657294773E-03 0.10711811807E-03 0.10643166961E-03 0.10608142951E-03 0.10655494969E-03
 0.10730668896E-03 0.10674192360E-03 0.10302866938E-03 0.96147911005E-04 0.88816979058E-04
 0.84185589310E-04 0.82590336806E-04 0.81700407854E-04 0.80061093799E-04 0.79154074418E-04
 0.81100793922E-04 0.85393233951E-04 0.84418116486E-04 0.85358349244E-04 0.85849112454E-04
 0.85866245436E-04 0.85399444202E-04 0.84457541734E-04 0.83467736844E-04 0.82958811781E-04
 0.82643480777E-04 0.81584722011E-04 0.79888223079E-04 0.79667566853E-04 0.83295495411E-04
 0.90577980103E-04 0.98412174133E-04 0.10356355720E-03 0.10529330686E-03 0.10508948834E-03
 0.10463243715E-03 0.10467600005E-03 0.10520871002E-03 0.10545916083E-03 0.10374260973E-03
 0.98580314521E-04 0.90727441343E-04 0.83431944166E-04 0.79799864952E-04 0.80017630451E-04
 0.81700408114E-04 0.82727216824E-04 0.82996018990E-04 0.83458050975E-04 0.86566587489E-04
 0.83438833236E-04 0.81022556735E-04 0.80134191517E-04 0.81033446290E-04 0.83467736890E-04
 0.86618568412E-04 0.89099237197E-04 0.89369364728E-04 0.86756875344E-04 0.82507418805E-04
 0.79623840961E-04 0.80941391026E-04 0.86780329873E-04 0.94485060764E-04 0.10052651922E-03
 0.10315033219E-03 0.10307971575E-03 0.10213033080E-03 0.10166192146E-03 0.10211821924E-03
 0.10308376511E-03 0.10321025830E-03 0.10066914272E-03 0.94705900352E-04 0.87041239336E-04
 0.81185519647E-04 0.79799864803E-04 0.82590337076E-04 0.86755117760E-04 0.89315864964E-04
 0.89032825615E-04 0.94423758949E-04 0.89064260337E-04 0.82961826893E-04 0.79032346529E-04
 0.79026091321E-04 0.82958811832E-04 0.89099237167E-04 0.94521259989E-04 0.96445000318E-04
 0.93930386891E-04 0.88687021696E-04 0.84134948413E-04 0.83261890502E-04 0.86814409087E-04
 0.93019114246E-04 0.98854438459E-04 0.10191220933E-03 0.10166863788E-03 0.99497060361E-04
 0.97586630822E-04 0.97524266963E-04 0.99345425042E-04 0.10151492712E-03 0.10184837047E-03
 0.98928047095E-04 0.93208594471E-04 0.87041238771E-04 0.83431943334E-04 0.84185588948E-04
 0.88614553881E-04 0.93784653194E-04 0.96296915425E-04 0.99990112114E-04 0.96403383292E-04
 0.89386940042E-04 0.82671200296E-04 0.79923817011E-04 0.82643480834E-04 0.89369364611E-04
 0.96445000162E-04 0.10011487144E-03 0.98902157077E-04 0.94492637317E-04 0.90267676365E-04
 0.88820977918E-04 0.90654644683E-04 0.94633813212E-04 0.98942680580E-04 0.10160724636E-03
 0.10110228380E-03 0.97500658196E-04 0.93084975358E-04 0.91044770869E-04 0.92914926007E-04
 0.97235006123E-04 0.10085135013E-03 0.10146114900E-03 0.98928047066E-04 0.94705899496E-04
 0.90727439755E-04 0.88816977563E-04 0.90159034400E-04 0.94311673035E-04 0.98717634476E-04
 0.99401400504E-04 0.98897365829E-04 0.93987833829E-04 0.86826116126E-04 0.81614855365E-04
 0.81584722126E-04 0.86756875183E-04 0.93930386523E-04 0.98902156767E-04 0.99488683432E-04
 0.96968128075E-04 0.94554352522E-04 0.94397831525E-04 0.96225753296E-04 0.98636963134E-04
 0.10075626019E-03 0.10200819032E-03 0.10108546169E-03 0.96706239798E-04 0.89917177505E-04
 0.84608874026E-04 0.84530593810E-04 0.89711669634E-04 0.96446481631E-04 0.10085135084E-03
 0.10184837128E-03 0.10066914255E-03 0.98580312912E-04 0.96147908561E-04 0.94271616458E-04
 0.94393941652E-04 0.96819706410E-04 0.96464560777E-04 0.97041529250E-04 0.94618969900E-04
 0.88818336604E-04 0.82590434737E-04 0.79888223389E-04 0.82507418746E-04 0.88687021268E-04
 0.94492636762E-04 0.96968127696E-04 0.96467245154E-04 0.95895738838E-04 0.97496507220E-04
 0.10065731659E-03 0.10314127559E-03 0.10384708071E-03 0.10331799812E-03 0.10163421932E-03
 0.97359668448E-04 0.89819803740E-04 0.81792739600E-04 0.78250031180E-04 0.81729045309E-04
 0.89711669865E-04 0.97235007416E-04 0.10151492916E-03 0.10321025980E-03 0.10374260944E-03
 0.10302866713E-03 0.10053614033E-03 0.97384668848E-04 0.95824326156E-04 0.96350265832E-04
 0.96039580097E-04 0.94730415398E-04 0.90435953492E-04 0.84255504431E-04 0.79667567432E-04
 0.79623841179E-04 0.84134948141E-04 0.90267675777E-04 0.94554351911E-04 0.95895738475E-04
 0.96267647770E-04 0.98310650564E-04 0.10227082957E-03 0.10580809126E-03 0.10681232185E-03
 0.10549194494E-03 0.10306478954E-03 0.99282038459E-04 0.92832623665E-04 0.84462601500E-04
 0.78223834656E-04 0.78250030395E-04 0.84530593117E-04 0.92914926700E-04 0.99345427504E-04
 0.10308376831E-03 0.10545916285E-03 0.10674192315E-03 0.10573088626E-03 0.10222334351E-03
 0.98322241953E-04 0.99317852488E-04 0.98486159878E-04 0.97662034232E-04 0.94523160939E-04
 0.88897062778E-04 0.83295496214E-04 0.80941391630E-04 0.83261890591E-04 0.88820977524E-04
 0.94397830896E-04 0.97496506687E-04 0.98310650326E-04 0.99174384143E-04 0.10182547356E-03
 0.10542851806E-03 0.10764887397E-03 0.10730371361E-03 0.10512614803E-03 0.10193760058E-03
 0.97278103659E-04 0.90806847389E-04 0.84462601031E-04 0.81792737930E-04 0.84608871695E-04
 0.91044769530E-04 0.97524268039E-04 0.10211822266E-03 0.10520871405E-03 0.10730669125E-03
 0.10762628618E-03 0.10543921724E-03 0.10190399862E-03 0.10177265681E-03 0.10199524814E-03
 0.10238173451E-03 0.10067461886E-03 0.96167227841E-04 0.90577981016E-04 0.86780330776E-04
 0.86814409617E-04 0.90654644680E-04 0.96225752948E-04 0.10065731618E-03 0.10227082935E-03
 0.10182547356E-03 0.10161110892E-03 0.10306367453E-03 0.10543929773E-03 0.10691629198E-03
 0.10652296087E-03 0.10453443240E-03 0.10140484579E-03 0.97278104441E-04 0.92832624013E-04
 0.89819802376E-04 0.89917174257E-04 0.93084971653E-04 0.97586628911E-04 0.10166192283E-03
 0.10467600411E-03 0.10655495413E-03 0.10690202021E-03 0.10545688554E-03 0.10315891942E-03
 0.10134465380E-03 0.10318670684E-03 0.10547426382E-03 0.10572495160E-03 0.10294622975E-03
 0.98412174879E-04 0.94485061776E-04 0.93019115088E-04 0.94633813600E-04 0.98636963127E-04
 0.10314127544E-03 0.10580809125E-03 0.10542851825E-03 0.10306367476E-03 0.10122896540E-03
 0.10163891367E-03 0.10380165756E-03 0.10579228810E-03 0.10608874780E-03 0.10453443333E-03
 0.10193760269E-03 0.99282040729E-04 0.97359669120E-04 0.96706237599E-04 0.97500653570E-04
 0.99497055540E-04 0.10213032851E-03 0.10463243872E-03 0.10608143390E-03 0.10573169401E-03
 0.10376625128E-03 0.10168234702E-03 0.99187127688E-04 0.10167726541E-03 0.10541698330E-03
 0.10751650164E-03 0.10657294745E-03 0.10356355764E-03 0.10052652008E-03 0.98854439358E-04
 0.98942681195E-04 0.10075626044E-03 0.10384708079E-03 0.10681232204E-03 0.10764887445E-03
 0.10543929840E-03 0.10163891415E-03 0.99156745904E-04 0.99844066689E-04 0.10290600925E-03
 0.10579228802E-03 0.10652296189E-03 0.10512615079E-03 0.10306479368E-03 0.10163422300E-03
 0.10108546264E-03 0.10110228092E-03 0.10166863225E-03 0.10307971021E-03 0.10508948590E-03
 0.10643167136E-03 0.10567820949E-03 0.10281830699E-03 0.99817881178E-04 0.23226760832E-03
 0.23547663733E-03 0.24298176821E-03 0.25018619493E-03 0.25362352905E-03 0.25307855471E-03
 0.25069789080E-03 0.24866525460E-03 0.24795895419E-03 0.24873880923E-03 0.25082639575E-03
 0.25323083370E-03 0.25376587482E-03 0.25029305322E-03 0.24304348958E-03 0.23550171673E-03
 0.23227869654E-03 0.23550171521E-03 0.24304348749E-03 0.25029305216E-03 0.25376587622E-03
 0.25323083805E-03 0.25082640165E-03 0.24873881383E-03 0.24795895481E-03 0.24866525053E-03
 0.25069788408E-03 0.25307854906E-03 0.25362352748E-03 0.25018619797E-03 0.24298177359E-03
 0.23547664133E-03 0.23390696060E-03 0.23547994181E-03 0.24204015855E-03 0.24971278910E-03
 0.25463585607E-03 0.25551631055E-03 0.25369412563E-03 0.25135203133E-03 0.24993177934E-03
 0.24991733160E-03 0.25132189495E-03 0.25367891906E-03 0.25554282983E-03 0.25470735964E-03
 0.24980398993E-03 0.24211120385E-03 0.23550171585E-03 0.23388233983E-03 0.23805942145E-03
 0.24494100959E-03 0.24998341310E-03 0.25064711777E-03 0.24774024041E-03 0.24392113090E-03
 0.24146576362E-03 0.24139656825E-03 0.24374126070E-03 0.24751910229E-03 0.25046195065E-03
 0.24988329955E-03 0.24492740333E-03 0.23809230880E-03 0.23762371100E-03 0.23809282894E-03
 0.24301425240E-03 0.24975452196E-03 0.25488440227E-03 0.25643299902E-03 0.25459318919E-03
 0.25103563778E-03 0.24781306169E-03 0.24650172349E-03 0.24770273168E-03 0.25086760986E-03
 0.25444314697E-03 0.25635777276E-03 0.25489211860E-03 0.24980398989E-03 0.24304348850E-03
 0.23805942198E-03 0.23753273422E-03 0.24111748712E-03 0.24542234098E-03 0.24661889417E-03
 0.24338034136E-03 0.23753129331E-03 0.23229454920E-03 0.23020643323E-03 0.23217820555E-03
 0.23735567876E-03 0.24322843165E-03 0.24655502377E-03 0.24545955920E-03 0.24121494839E-03
 0.24050348643E-03 0.24119026440E-03 0.24495536556E-03 0.25028372239E-03 0.25473342318E-03
 0.25646697863E-03 0.25474859202E-03 0.25005354437E-03 0.24426017188E-03 0.24020939479E-03
 0.24013530408E-03 0.24406805667E-03 0.24981834621E-03 0.25455201082E-03 0.25635777372E-03
 0.25470736064E-03 0.25029305309E-03 0.24494101026E-03 0.24111748740E-03 0.24038072311E-03
 0.24178097832E-03 0.24219137612E-03 0.23882643746E-03 0.23167515049E-03 0.22359834026E-03
 0.21832985486E-03 0.21830424304E-03 0.22354080401E-03 0.23163150773E-03 0.23884019132E-03
 0.24227587793E-03 0.24190994547E-03 0.24009579176E-03 0.24183856597E-03 0.24543082066E-03
 0.24996922668E-03 0.25377242129E-03 0.25560911945E-03 0.25458165164E-03 0.25000416168E-03
 0.24253495695E-03 0.23520248368E-03 0.23207492043E-03 0.23509325964E-03 0.24235667480E-03
 0.24981834698E-03 0.25444314905E-03 0.25554283258E-03 0.25376587683E-03 0.24998341362E-03
 0.24542234123E-03 0.24178097836E-03 0.23998964806E-03 0.23880391883E-03 0.23545210403E-03
 0.22824133672E-03 0.21852517130E-03 0.21010389836E-03 0.20678797409E-03 0.21013255742E-03
 0.21858761207E-03 0.22834037130E-03 0.23557912221E-03 0.23893576514E-03 0.23678384256E-03
 0.23881143273E-03 0.24215440108E-03 0.24656030101E-03 0.25059457145E-03 0.25320712400E-03
 0.25369404631E-03 0.25091559111E-03 0.24412969696E-03 0.23514393344E-03 0.22856029523E-03
 0.22854081271E-03 0.23509325916E-03 0.24406805699E-03 0.25086761213E-03 0.25367892315E-03
 0.25323083826E-03 0.25064711798E-03 0.24661889419E-03 0.24219137592E-03 0.23880391862E-03
 0.23672182654E-03 0.23403172290E-03 0.22816140472E-03 0.21866928185E-03 0.20835867021E-03
 0.20163570613E-03 0.20166987209E-03 0.20845266290E-03 0.21879990983E-03 0.22829716785E-03
 0.23414156504E-03 0.23325610566E-03 0.23397979923E-03 0.23536822933E-03 0.23873327381E-03
 0.24329167090E-03 0.24765699731E-03 0.25074159162E-03 0.25123038997E-03 0.24760924418E-03
 0.24005537292E-03 0.23202819194E-03 0.22856029442E-03 0.23207491876E-03 0.24013530269E-03
 0.24770273233E-03 0.25132189857E-03 0.25082640170E-03 0.24774024049E-03 0.24338034123E-03
 0.23882643707E-03 0.23545210354E-03 0.23403172253E-03 0.23325608049E-03 0.23016154707E-03
 0.22279108291E-03 0.21246438120E-03 0.20333486804E-03 0.19971825738E-03 0.20339653669E-03
 0.21256228287E-03 0.22288602934E-03 0.23021793116E-03 0.23078519264E-03 0.23005106961E-03
 0.22804164590E-03 0.22814569353E-03 0.23161369225E-03 0.23748408382E-03 0.24385064683E-03
 0.24861473636E-03 0.24973927746E-03 0.24630610154E-03 0.24005537319E-03 0.23514393277E-03
 0.23520248138E-03 0.24020939152E-03 0.24650172128E-03 0.24991733252E-03 0.24873881406E-03
 0.24392113116E-03 0.23753129330E-03 0.23167515017E-03 0.22824133612E-03 0.22816140410E-03
 0.23016154672E-03 0.23085074372E-03 0.22706519146E-03 0.21861211592E-03 0.20878734367E-03
 0.20227639651E-03 0.20229807328E-03 0.20883698698E-03 0.21865271375E-03 0.22706007308E-03
 0.22730149237E-03 0.22692345484E-03 0.22265202257E-03 0.21858571482E-03 0.21852194789E-03
 0.22365412131E-03 0.23234986071E-03 0.24145458067E-03 0.24784691072E-03 0.24973927817E-03
 0.24760924550E-03 0.24412969768E-03 0.24253495565E-03 0.24426016822E-03 0.24781305708E-03
 0.24993177645E-03 0.24795895536E-03 0.24146576422E-03 0.23229454959E-03 0.22359834029E-03
 0.21852517092E-03 0.21866928125E-03 0.22279108238E-03 0.22706519117E-03 0.22739728673E-03
 0.22228507551E-03 0.21383777023E-03 0.20625240620E-03 0.20325610921E-03 0.20627372021E-03
 0.21385131056E-03 0.22225315646E-03 0.22103076742E-03 0.22216988833E-03 0.21849661383E-03
 0.21240513015E-03 0.20839605717E-03 0.21023596289E-03 0.21850762859E-03 0.23035552918E-03
 0.24145458061E-03 0.24861473720E-03 0.25123039206E-03 0.25091559363E-03 0.25000416279E-03
 0.25005354252E-03 0.25103563299E-03 0.25135202569E-03 0.24866525122E-03 0.24139656914E-03
 0.23020643408E-03 0.21832985538E-03 0.21010389847E-03 0.20835866995E-03 0.21246438078E-03
 0.21861211556E-03 0.22228507534E-03 0.22110411984E-03 0.21595115096E-03 0.20984799774E-03
 0.20590815028E-03 0.20591445346E-03 0.20985393597E-03 0.21592792192E-03 0.21502795379E-03
 0.21590021776E-03 0.21379462818E-03 0.20878306501E-03 0.20339650882E-03 0.20177097544E-03
 0.20697764718E-03 0.21850762803E-03 0.23234985984E-03 0.24385064666E-03 0.25074159314E-03
 0.25369404953E-03 0.25458165507E-03 0.25474859341E-03 0.25459318696E-03 0.25369412014E-03
 0.25069788456E-03 0.24374126155E-03 0.23217820657E-03 0.21830424396E-03 0.20678797470E-03
 0.20163570635E-03 0.20333486798E-03 0.20878734349E-03 0.21383777010E-03 0.21595115091E-03
 0.21506567958E-03 0.21268246928E-03 0.21050861452E-03 0.20966163444E-03 0.21050241185E-03
 0.21266333682E-03 0.21468270753E-03 0.21267451865E-03 0.20987724551E-03 0.20631823044E-03
 0.20236676967E-03 0.19981833857E-03 0.20177097528E-03 0.21023596206E-03 0.22365411968E-03
 0.23748408219E-03 0.24765699700E-03 0.25320712604E-03 0.25560912349E-03 0.25646698271E-03
 0.25643300061E-03 0.25551630813E-03 0.25307854899E-03 0.24751910270E-03 0.23735567955E-03
 0.22354080496E-03 0.21013255826E-03 0.20166987270E-03 0.19971825771E-03 0.20227639664E-03
 0.20625240625E-03 0.20984799779E-03 0.21268246932E-03 0.21471434084E-03 0.21584950356E-03
 0.21624661619E-03 0.21623288650E-03 0.21581656831E-03 0.21964847036E-03 0.21584181280E-03
 0.21056036452E-03 0.20600941836E-03 0.20336574254E-03 0.20236676993E-03 0.20339650908E-03
 0.20839605680E-03 0.21852194635E-03 0.23161368977E-03 0.24329166860E-03 0.25059457099E-03
 0.25377242358E-03 0.25473342762E-03 0.25488440669E-03 0.25463585786E-03 0.25362352683E-03
 0.25046195041E-03 0.24322843187E-03 0.23163150829E-03 0.21858761278E-03 0.20845266355E-03
 0.20339653720E-03 0.20229807362E-03 0.20325610944E-03 0.20590815046E-03 0.21050861465E-03
 0.21584950364E-03 0.21969111800E-03 0.22116045047E-03 0.22134434754E-03 0.22112392550E-03
 0.22158705867E-03 0.22114321000E-03 0.21628051936E-03 0.20974605047E-03 0.20600941843E-03
 0.20631823088E-03 0.20878306578E-03 0.21240513073E-03 0.21858571439E-03 0.22814569160E-03
 0.23873327075E-03 0.24656029823E-03 0.24996922591E-03 0.25028372458E-03 0.24975452639E-03
 0.24971279352E-03 0.25018619694E-03 0.24988329874E-03 0.24655502332E-03 0.23884019129E-03
 0.22834037158E-03 0.21879991022E-03 0.21256228326E-03 0.20883698733E-03 0.20627372045E-03
 0.20591445367E-03 0.20966163461E-03 0.21624661632E-03 0.22116045055E-03 0.22162363728E-03
 0.21988360751E-03 0.21986586308E-03 0.21338047518E-03 0.21987189882E-03 0.22135923842E-03
 0.21628051915E-03 0.21056036428E-03 0.20987724565E-03 0.21379462897E-03 0.21849661510E-03
 0.22265202360E-03 0.22804164573E-03 0.23536822737E-03 0.24215439776E-03 0.24543081749E-03
 0.24495536434E-03 0.24301425408E-03 0.24204016258E-03 0.24298177254E-03 0.24492740223E-03
 0.24545955830E-03 0.24227587736E-03 0.23557912196E-03 0.22829716781E-03 0.22288602943E-03
 0.21865271386E-03 0.21385131065E-03 0.20985393604E-03 0.21050241190E-03 0.21623288654E-03
 0.22134434759E-03 0.21988360754E-03 0.21339588477E-03 0.20971902605E-03 0.19936843996E-03
 0.20971647669E-03 0.21987189875E-03 0.22114320960E-03 0.21584181210E-03 0.21267451804E-03
 0.21590021778E-03 0.22216988932E-03 0.22692345658E-03 0.23005107128E-03 0.23397979959E-03
 0.23881143111E-03 0.24183856269E-03 0.24119026089E-03 0.23809282706E-03 0.23547994275E-03
 0.23547664068E-03 0.23809230791E-03 0.24121494740E-03 0.24190994462E-03 0.23893576451E-03
 0.23414156467E-03 0.23021793093E-03 0.22706007291E-03 0.22225315628E-03 0.21592792174E-03
 0.21266333663E-03 0.21581656816E-03 0.22112392539E-03 0.21986586302E-03 0.20971902602E-03
 0.19937069974E-03 0.19236130231E-03 0.19936844022E-03 0.21338047540E-03 0.22158705847E-03
 0.21964846949E-03 0.21468270618E-03 0.21502795253E-03 0.22103076704E-03 0.22730149338E-03
 0.23078519487E-03 0.23325610811E-03 0.23678384384E-03 0.24009579084E-03 0.24050348340E-03
 0.23762370720E-03 0.23390695797E-03 0.23226760832E-03 0.23390696016E-03 0.23762371031E-03
 0.24050348571E-03 0.24009579108E-03 0.23678384203E-03 0.23325610526E-03 0.23078519231E-03
 0.22730149201E-03 0.22103076700E-03 0.21502795331E-03 0.21468270708E-03 0.21964846997E-03
 0.22158705840E-03 0.21338047503E-03 0.19936843990E-03 0.19936844014E-03 0.19937070039E-03
 0.20971902687E-03 0.21986586360E-03 0.22112392514E-03 0.21581656686E-03 0.21266333455E-03
 0.21592791968E-03 0.22225315535E-03 0.22706007393E-03 0.23021793384E-03 0.23414156847E-03
 0.23893576756E-03 0.24190994545E-03 0.24121494570E-03 0.23809230470E-03 0.23547663795E-03
 0.23547994203E-03 0.23809282877E-03 0.24119026399E-03 0.24183856549E-03 0.23881143233E-03
 0.23397979889E-03 0.23005106932E-03 0.22692345448E-03 0.22216988783E-03 0.21590021711E-03
 0.21267451791E-03 0.21584181210E-03 0.22114320944E-03 0.21987189844E-03 0.20971647648E-03
 0.21338047523E-03 0.20971902682E-03 0.21339588618E-03 0.21988360907E-03 0.22134434846E-03
 0.21623288602E-03 0.21050240967E-03 0.20985393252E-03 0.21385130704E-03 0.21865271166E-03
 0.22288602982E-03 0.22829717095E-03 0.23557912667E-03 0.24227588157E-03 0.24545956013E-03
 0.24492740098E-03 0.24298176928E-03 0.24204015934E-03 0.24301425281E-03 0.24495536565E-03
 0.24543082057E-03 0.24215440098E-03 0.23536822929E-03 0.22804164590E-03 0.22265202246E-03
 0.21849661351E-03 0.21379462758E-03 0.20987724468E-03 0.21056036361E-03 0.21628051852E-03