   2   2   0   0
  0.1759755E+02  0.2461200E-09  0.2461200E-09  0.6709000E-09  0.5000000E-15
  1.000000000000000E-004
  CAR 
 unknown system                          
     25.69004505    -21.18905620  301      0.30464259      1.00000000
    -21.189  0.0000E+00  0.0000E+00  0.0000E+00  0.0000E+00
    -21.033  0.0000E+00  0.0000E+00  0.0000E+00  0.0000E+00
    -20.877  0.0000E+00  0.0000E+00  0.0000E+00  0.0000E+00
    -20.720 -0.3384E-31  0.0000E+00 -0.5289E-32  0.0000E+00
    -20.564 -0.7266E-26  0.0000E+00 -0.1135E-26  0.0000E+00
    -20.408 -0.4551E-21 -0.1109E-30 -0.7112E-22 -0.1733E-31
    -20.251 -0.8296E-17 -0.2125E-25 -0.1296E-17 -0.3320E-26
    -20.095 -0.4223E-13 -0.1188E-20 -0.6601E-14 -0.1856E-21
    -19.939 -0.6339E-10 -0.1852E-16 -0.9911E-11 -0.2894E-17
    -19.783 -0.2686E-07 -0.8755E-13 -0.4208E-08 -0.1368E-13
    -19.626 -0.3113E-05 -0.1170E-09 -0.4907E-06 -0.1829E-10
    -19.470 -0.9012E-04 -0.4405E-07 -0.1457E-04 -0.6902E-08
    -19.314 -0.4051E-03 -0.4515E-05 -0.7788E-04 -0.7124E-06
    -19.158  0.2368E-02 -0.1138E-03  0.2921E-03 -0.1849E-04
    -19.001  0.8512E-02 -0.3852E-03  0.1622E-02 -0.7868E-04
    -18.845  0.4275E-02  0.2976E-02  0.2290E-02  0.3864E-03
    -18.689 -0.2553E-03  0.8640E-02  0.2250E-02  0.1736E-02
    -18.533 -0.1715E-03  0.3594E-02  0.2224E-02  0.2298E-02
    -18.376 -0.9006E-05 -0.3392E-03  0.2222E-02  0.2245E-02
    -18.220 -0.1119E-06 -0.1400E-03  0.2222E-02  0.2223E-02
    -18.064 -0.3744E-09 -0.6355E-05  0.2222E-02  0.2222E-02
    -17.908 -0.3515E-12 -0.6973E-07  0.2222E-02  0.2222E-02
    -17.751 -0.9514E-16 -0.2072E-09  0.2222E-02  0.2222E-02
    -17.595 -0.3877E-14 -0.1731E-12  0.2222E-02  0.2222E-02
    -17.439 -0.1097E-10 -0.4282E-16  0.2222E-02  0.2222E-02
    -17.282 -0.8843E-08 -0.1407E-13  0.2222E-02  0.2222E-02
    -17.126 -0.1987E-05 -0.3291E-10  0.2222E-02  0.2222E-02
    -16.970 -0.1183E-03 -0.2188E-07  0.2203E-02  0.2222E-02
    -16.814 -0.1560E-02 -0.4038E-05  0.1960E-02  0.2222E-02
    -16.657  0.8168E-03 -0.1946E-03  0.2087E-02  0.2191E-02
    -16.501  0.3554E-01 -0.1946E-02  0.7640E-02  0.1887E-02
    -16.345  0.4629E-01  0.3588E-02  0.1487E-01  0.2448E-02
    -16.189  0.6898E-02  0.4175E-01  0.1595E-01  0.8972E-02
    -16.032 -0.2239E-02  0.4103E-01  0.1560E-01  0.1538E-01
    -15.876 -0.2925E-03  0.3188E-02  0.1556E-01  0.1588E-01
    -15.720 -0.7326E-05 -0.1900E-02  0.1556E-01  0.1558E-01
    -15.564 -0.4725E-07 -0.1834E-03  0.1556E-01  0.1556E-01
    -15.407 -0.8415E-10 -0.3705E-05  0.1556E-01  0.1556E-01
    -15.251 -0.4250E-13 -0.1959E-07  0.1556E-01  0.1556E-01
    -15.095  0.0000E+00 -0.2877E-10  0.1556E-01  0.1556E-01
    -14.939  0.0000E+00 -0.1201E-13  0.1556E-01  0.1556E-01
    -14.782  0.0000E+00  0.0000E+00  0.1556E-01  0.1556E-01
    -14.626  0.0000E+00  0.0000E+00  0.1556E-01  0.1556E-01
    -14.470  0.0000E+00  0.0000E+00  0.1556E-01  0.1556E-01
    -14.313  0.0000E+00  0.0000E+00  0.1556E-01  0.1556E-01
    -14.157  0.0000E+00  0.0000E+00  0.1556E-01  0.1556E-01
    -14.001  0.0000E+00  0.0000E+00  0.1556E-01  0.1556E-01
    -13.845 -0.3386E-31  0.0000E+00  0.1556E-01  0.1556E-01
    -13.688 -0.8291E-26  0.0000E+00  0.1556E-01  0.1556E-01
    -13.532 -0.5925E-21 -0.1274E-30  0.1556E-01  0.1556E-01
    -13.376 -0.1233E-16 -0.2752E-25  0.1556E-01  0.1556E-01
    -13.220 -0.7174E-13 -0.1734E-20  0.1556E-01  0.1556E-01
    -13.063 -0.1231E-09 -0.3179E-16  0.1556E-01  0.1556E-01
    -12.907 -0.5981E-07 -0.1628E-12  0.1556E-01  0.1556E-01
    -12.751 -0.7983E-05 -0.2457E-09  0.1555E-01  0.1556E-01
    -12.595 -0.2704E-03 -0.1048E-06  0.1551E-01  0.1556E-01
    -12.438 -0.1602E-02 -0.1222E-04  0.1526E-01  0.1555E-01
    -12.282  0.6932E-02 -0.3561E-03  0.1634E-01  0.1550E-01
    -12.126  0.3283E-01 -0.1622E-02  0.2148E-01  0.1524E-01
    -11.969  0.2032E-01  0.9353E-02  0.2465E-01  0.1671E-01
    -11.813 -0.4127E-03  0.3401E-01  0.2459E-01  0.2202E-01
    -11.657 -0.8498E-03  0.1724E-01  0.2445E-01  0.2471E-01
    -11.501 -0.5310E-04 -0.9998E-03  0.2444E-01  0.2456E-01
    -11.344 -0.7628E-06 -0.6927E-03  0.2444E-01  0.2445E-01
    -11.188 -0.2929E-08 -0.3665E-04  0.2444E-01  0.2444E-01
    -11.032 -0.3219E-11 -0.4583E-06  0.2444E-01  0.2444E-01
    -10.876 -0.1110E-09 -0.1544E-08  0.2444E-01  0.2444E-01
    -10.719 -0.4823E-07 -0.1494E-08  0.2444E-01  0.2444E-01
    -10.563 -0.5739E-05 -0.3871E-06  0.2444E-01  0.2444E-01
    -10.407 -0.1711E-03 -0.2684E-04  0.2442E-01  0.2444E-01
    -10.251 -0.8125E-03 -0.4273E-03  0.2429E-01  0.2437E-01
    -10.094  0.4487E-02 -0.1959E-03  0.2499E-01  0.2434E-01
     -9.938  0.1694E-01  0.1020E-01  0.2764E-01  0.2594E-01
     -9.782  0.8844E-02  0.1639E-01  0.2902E-01  0.2850E-01
     -9.626 -0.6734E-03  0.3432E-02  0.2891E-01  0.2904E-01
     -9.469 -0.2361E-02 -0.8528E-03  0.2855E-01  0.2890E-01
     -9.313  0.4101E-02 -0.1147E-02  0.2919E-01  0.2872E-01
     -9.157  0.4264E-01 -0.1585E-02  0.3585E-01  0.2848E-01
     -9.000  0.4009E-01  0.2532E-01  0.4211E-01  0.3243E-01
     -8.844  0.2703E-02  0.5116E-01  0.4254E-01  0.4043E-01
     -8.688 -0.1840E-02  0.1448E-01  0.4225E-01  0.4269E-01
     -8.532 -0.1698E-03 -0.2427E-02  0.4222E-01  0.4231E-01
     -8.375 -0.3318E-05 -0.5511E-03  0.4222E-01  0.4223E-01
     -8.219 -0.1726E-07 -0.1925E-04  0.4222E-01  0.4222E-01
     -8.063 -0.8094E-07 -0.1677E-06  0.4222E-01  0.4222E-01
     -7.907 -0.7095E-05 -0.3994E-09  0.4222E-01  0.4222E-01
     -7.750 -0.1494E-03 -0.2739E-12  0.4220E-01  0.4222E-01
     -7.594 -0.3173E-03 -0.1092E-10  0.4215E-01  0.4222E-01
     -7.438  0.3804E-02 -0.6417E-08  0.4274E-01  0.4222E-01
     -7.282  0.8614E-02 -0.1043E-05  0.4409E-01  0.4222E-01
     -7.125  0.2781E-02 -0.4381E-04  0.4452E-01  0.4222E-01
     -6.969 -0.3942E-03 -0.3614E-03  0.4446E-01  0.4216E-01
     -6.813 -0.1060E-03  0.9874E-03  0.4445E-01  0.4231E-01
     -6.657 -0.4025E-05  0.7530E-02  0.4444E-01  0.4349E-01
     -6.500 -0.3780E-07  0.6179E-02  0.4444E-01  0.4446E-01
     -6.344 -0.9676E-10  0.2296E-03  0.4444E-01  0.4449E-01
     -6.188 -0.4703E-10 -0.2753E-03  0.4444E-01  0.4445E-01
     -6.031 -0.2930E-07 -0.2224E-04  0.4444E-01  0.4444E-01
     -5.875 -0.5065E-05 -0.4980E-06  0.4444E-01  0.4444E-01
     -5.719 -0.2276E-03 -0.1355E-04  0.4441E-01  0.4444E-01
     -5.563 -0.2065E-02 -0.4397E-03  0.4409E-01  0.4437E-01
     -5.406  0.4733E-02 -0.2425E-02  0.4483E-01  0.4399E-01
     -5.250  0.4358E-01  0.1139E-01  0.5163E-01  0.4577E-01
     -5.094  0.3904E-01  0.4985E-01  0.5774E-01  0.5356E-01
     -4.938  0.2143E-02  0.2915E-01  0.5807E-01  0.5812E-01
     -4.781 -0.2869E-02 -0.9081E-03  0.5762E-01  0.5798E-01
     -4.625 -0.1469E-02 -0.1205E-02  0.5739E-01  0.5779E-01
     -4.469  0.2700E-01 -0.7175E-04  0.6161E-01  0.5778E-01
     -4.313  0.5066E-01 -0.3524E-05  0.6953E-01  0.5778E-01
     -4.156  0.1309E-01 -0.1405E-03  0.7157E-01  0.5776E-01
     -4.000 -0.2439E-02 -0.1692E-02  0.7119E-01  0.5749E-01
     -3.844 -0.4996E-03  0.1638E-02  0.7111E-01  0.5775E-01
     -3.688 -0.1651E-04  0.3773E-01  0.7111E-01  0.6364E-01
     -3.531 -0.1369E-06  0.4467E-01  0.7111E-01  0.7062E-01
     -3.375 -0.9518E-09  0.5521E-02  0.7111E-01  0.7148E-01
     -3.219 -0.1977E-06 -0.2135E-02  0.7111E-01  0.7115E-01
     -3.062 -0.1644E-04 -0.2513E-03  0.7111E-01  0.7111E-01
     -2.906 -0.3256E-03 -0.3789E-04  0.7106E-01  0.7111E-01
     -2.750 -0.5629E-03 -0.4689E-03  0.7097E-01  0.7103E-01
     -2.594  0.8186E-02 -0.2794E-05  0.7225E-01  0.7103E-01
     -2.437  0.1712E-01  0.1096E-01  0.7492E-01  0.7274E-01
     -2.281  0.5047E-02  0.1599E-01  0.7571E-01  0.7524E-01
     -2.125 -0.8046E-03  0.2893E-02  0.7559E-01  0.7570E-01
     -1.969 -0.1920E-03 -0.7801E-03  0.7556E-01  0.7557E-01
     -1.812 -0.6877E-05 -0.1163E-03  0.7556E-01  0.7556E-01
     -1.656 -0.6130E-07 -0.3176E-05  0.7556E-01  0.7556E-01
     -1.500 -0.1492E-09 -0.2217E-07  0.7556E-01  0.7556E-01
     -1.344 -0.1025E-12 -0.4264E-10  0.7556E-01  0.7556E-01
     -1.187 -0.1896E-16 -0.2323E-13  0.7556E-01  0.7556E-01
     -1.031 -0.1473E-15 -0.6315E-17  0.7556E-01  0.7556E-01
     -0.875 -0.6219E-12  0.0000E+00  0.7556E-01  0.7556E-01
     -0.719 -0.7574E-09 -0.1335E-31  0.7556E-01  0.7556E-01
     -0.562 -0.2595E-06 -0.3568E-26  0.7556E-01  0.7556E-01
     -0.406 -0.2410E-04 -0.2784E-21  0.7555E-01  0.7556E-01
     -0.250 -0.5422E-03 -0.6325E-17  0.7547E-01  0.7556E-01
     -0.093 -0.1394E-02 -0.4024E-13  0.7525E-01  0.7556E-01
      0.063  0.1398E-01 -0.7552E-10  0.7743E-01  0.7556E-01
      0.219  0.3459E-01 -0.4016E-07  0.8284E-01  0.7556E-01
      0.375  0.1229E-01 -0.5886E-05  0.8476E-01  0.7555E-01
      0.532 -0.1519E-02 -0.2210E-03  0.8452E-01  0.7552E-01
      0.688 -0.4707E-03 -0.1542E-02  0.8445E-01  0.7528E-01
      0.844 -0.1908E-04  0.5428E-02  0.8444E-01  0.7613E-01
      1.000 -0.1897E-06  0.3168E-01  0.8444E-01  0.8108E-01
      1.157 -0.5127E-09  0.2244E-01  0.8444E-01  0.8458E-01
      1.313 -0.3905E-12  0.1446E-03  0.8444E-01  0.8461E-01
      1.469 -0.8842E-16 -0.9672E-03  0.8444E-01  0.8446E-01
      1.625 -0.3322E-29 -0.6814E-04  0.8444E-01  0.8444E-01
      1.782 -0.4567E-24 -0.1079E-05  0.8444E-01  0.8444E-01
      1.938 -0.1830E-19 -0.4542E-08  0.8444E-01  0.8444E-01
      2.094 -0.2069E-15 -0.5339E-11  0.8444E-01  0.8444E-01
      2.250 -0.6894E-12 -0.1961E-14  0.8444E-01  0.8444E-01
      2.407 -0.6561E-09 -0.5764E-12  0.8444E-01  0.8444E-01
      2.563 -0.1748E-06 -0.5654E-09  0.8444E-01  0.8444E-01
      2.719 -0.1247E-04 -0.1553E-06  0.8444E-01  0.8444E-01
      2.876 -0.2054E-03 -0.1144E-04  0.8441E-01  0.8444E-01
      3.032 -0.1328E-03 -0.1960E-03  0.8439E-01  0.8441E-01
      3.188  0.4946E-02 -0.1699E-03  0.8516E-01  0.8439E-01
      3.344  0.8270E-02  0.4767E-02  0.8645E-01  0.8513E-01
      3.501  0.1832E-02  0.8345E-02  0.8674E-01  0.8643E-01
      3.657 -0.4030E-03  0.1970E-02  0.8668E-01  0.8674E-01
      3.813 -0.7099E-04 -0.4053E-03  0.8667E-01  0.8668E-01
      3.969 -0.2150E-05 -0.7576E-04  0.8667E-01  0.8667E-01
      4.126 -0.1681E-07 -0.2376E-05  0.8667E-01  0.8667E-01
      4.282 -0.1414E-06 -0.1880E-07  0.8667E-01  0.8667E-01
      4.438 -0.1692E-04 -0.4082E-10  0.8666E-01  0.8667E-01
      4.594 -0.5076E-03 -0.2505E-13  0.8658E-01  0.8667E-01
      4.751 -0.2438E-02 -0.2267E-14  0.8620E-01  0.8667E-01
      4.907  0.1331E-01 -0.6920E-11  0.8828E-01  0.8667E-01
      5.063  0.5075E-01 -0.6036E-08  0.9621E-01  0.8667E-01
      5.220  0.2674E-01 -0.1471E-05  0.1004E+00  0.8667E-01
      5.376 -0.1359E-02 -0.9545E-04  0.1002E+00  0.8665E-01
      5.532 -0.1082E-02 -0.1401E-02  0.1000E+00  0.8643E-01
      5.688 -0.5906E-04 -0.3468E-04  0.1000E+00  0.8643E-01
      5.845 -0.7584E-06  0.3278E-01  0.1000E+00  0.9155E-01
      6.001 -0.7291E-07  0.4804E-01  0.1000E+00  0.9906E-01
      6.157 -0.9938E-05  0.8744E-02  0.1000E+00  0.1004E+00
      6.313 -0.3587E-03 -0.2350E-02  0.9994E-01  0.1001E+00
      6.470 -0.2354E-02 -0.6271E-03  0.9957E-01  0.9996E-01
      6.626  0.8984E-02 -0.2212E-02  0.1010E+00  0.9961E-01
      6.782  0.4823E-01  0.6366E-02  0.1085E+00  0.1006E+00
      6.938  0.3244E-01  0.4570E-01  0.1136E+00  0.1077E+00
      7.095 -0.1287E-03  0.3637E-01  0.1136E+00  0.1134E+00
      7.251 -0.1382E-02  0.1112E-02  0.1133E+00  0.1136E+00
      7.407 -0.9758E-04 -0.1609E-02  0.1133E+00  0.1134E+00
      7.563 -0.2164E-03 -0.1263E-03  0.1133E+00  0.1133E+00
      7.720 -0.2032E-02 -0.5902E-05  0.1130E+00  0.1133E+00
      7.876  0.4109E-02 -0.1844E-03  0.1136E+00  0.1133E+00
      8.032  0.4270E-01 -0.1928E-02  0.1203E+00  0.1130E+00
      8.189  0.4432E-01  0.2916E-02  0.1272E+00  0.1135E+00
      8.345  0.1090E-01  0.4141E-01  0.1289E+00  0.1199E+00
      8.501 -0.3968E-03  0.4795E-01  0.1289E+00  0.1274E+00
      8.657  0.1505E-02  0.1010E-01  0.1291E+00  0.1290E+00
      8.814  0.1510E-01  0.4850E-02  0.1315E+00  0.1298E+00
      8.970  0.1219E-01  0.1674E-01  0.1334E+00  0.1324E+00
      9.126  0.3967E-03  0.7117E-02  0.1334E+00  0.1335E+00
      9.282 -0.5407E-03 -0.6820E-03  0.1333E+00  0.1334E+00
      9.439 -0.4280E-04 -0.2787E-03  0.1333E+00  0.1333E+00
      9.595 -0.7432E-06 -0.1262E-04  0.1333E+00  0.1333E+00
      9.751 -0.3412E-08 -0.1381E-06  0.1333E+00  0.1333E+00
      9.907 -0.4366E-11 -0.4092E-09  0.1333E+00  0.1333E+00
     10.064 -0.8252E-14 -0.3411E-12  0.1333E+00  0.1333E+00
     10.220 -0.1479E-10 -0.4120E-15  0.1333E+00  0.1333E+00
     10.376 -0.9323E-08 -0.1138E-11  0.1333E+00  0.1333E+00
     10.532 -0.1630E-05 -0.1119E-08  0.1333E+00  0.1333E+00
     10.689 -0.7458E-04 -0.3081E-06  0.1333E+00  0.1333E+00
     10.845 -0.7328E-03 -0.2274E-04  0.1332E+00  0.1333E+00
     11.001  0.4469E-03 -0.3914E-03  0.1333E+00  0.1333E+00
     11.158  0.1200E-01 -0.3991E-03  0.1352E+00  0.1332E+00
     11.314  0.3983E-01  0.8416E-02  0.1414E+00  0.1345E+00
     11.470  0.6663E-01  0.1465E-01  0.1518E+00  0.1368E+00
     11.626  0.2680E-01  0.3148E-01  0.1560E+00  0.1417E+00
     11.783 -0.1468E-02  0.5910E-01  0.1557E+00  0.1510E+00
     11.939 -0.1133E-02  0.1864E-01  0.1556E+00  0.1539E+00
     12.095 -0.1702E-03 -0.2871E-02  0.1555E+00  0.1534E+00
     12.251 -0.4084E-03 -0.1067E-02  0.1555E+00  0.1533E+00
     12.408  0.2240E-02  0.3483E-02  0.1558E+00  0.1538E+00
     12.564  0.7613E-02  0.8645E-02  0.1570E+00  0.1552E+00
     12.720  0.4056E-02  0.2960E-02  0.1577E+00  0.1556E+00
     12.876  0.2053E-01 -0.1620E-02  0.1609E+00  0.1554E+00
     13.033  0.3238E-01  0.4847E-03  0.1659E+00  0.1554E+00
     13.189  0.5987E-02  0.2801E-01  0.1669E+00  0.1598E+00
     13.345 -0.7734E-03  0.3787E-01  0.1667E+00  0.1657E+00
     13.501  0.1294E-01  0.1221E-01  0.1688E+00  0.1676E+00
     13.658  0.1436E-01  0.1533E-01  0.1710E+00  0.1700E+00
     13.814  0.1471E-02  0.7773E-02  0.1712E+00  0.1713E+00
     13.970 -0.6779E-03 -0.5878E-03  0.1711E+00  0.1712E+00
     14.127 -0.7897E-04 -0.3201E-03  0.1711E+00  0.1711E+00
     14.283 -0.2630E-03 -0.1684E-04  0.1711E+00  0.1711E+00
     14.439 -0.2165E-02 -0.6565E-04  0.1707E+00  0.1711E+00
     14.595  0.5876E-02 -0.1146E-02  0.1716E+00  0.1709E+00
     14.752  0.4512E-01 -0.1134E-02  0.1787E+00  0.1707E+00
     14.908  0.3715E-01  0.2801E-01  0.1845E+00  0.1751E+00
     15.064  0.1408E-02  0.5030E-01  0.1847E+00  0.1830E+00
     15.220 -0.1657E-02  0.1228E-01  0.1845E+00  0.1849E+00
     15.377 -0.1786E-03 -0.2436E-02  0.1844E+00  0.1845E+00
     15.533 -0.1022E-02 -0.4715E-03  0.1843E+00  0.1844E+00
     15.689 -0.3277E-02 -0.6824E-04  0.1838E+00  0.1844E+00
     15.845  0.2521E-01 -0.1226E-02  0.1877E+00  0.1842E+00
     16.002  0.8014E-01 -0.3549E-02  0.2002E+00  0.1837E+00
     16.158  0.4371E-01  0.3151E-01  0.2071E+00  0.1886E+00
     16.314 -0.1484E-02  0.8544E-01  0.2068E+00  0.2020E+00
     16.470 -0.3655E-02  0.3320E-01  0.2063E+00  0.2072E+00
     16.627  0.2373E-01 -0.2901E-02  0.2100E+00  0.2067E+00
     16.783  0.5150E-01  0.3278E-01  0.2180E+00  0.2118E+00
     16.939  0.1575E-01  0.4715E-01  0.2205E+00  0.2192E+00
     17.096 -0.2398E-02  0.7815E-02  0.2201E+00  0.2204E+00
     17.252 -0.5992E-03 -0.2296E-02  0.2200E+00  0.2201E+00
     17.408 -0.3688E-04 -0.3278E-03  0.2200E+00  0.2200E+00
     17.564 -0.3078E-03 -0.1950E-03  0.2199E+00  0.2200E+00
     17.721 -0.6123E-03 -0.8076E-03  0.2199E+00  0.2198E+00
     17.877  0.7782E-02  0.4905E-02  0.2211E+00  0.2206E+00
     18.033  0.1664E-01  0.1708E-01  0.2237E+00  0.2233E+00
     18.189  0.2962E-02  0.8339E-02  0.2241E+00  0.2246E+00
     18.346  0.1379E-01 -0.9470E-03  0.2263E+00  0.2244E+00
     18.502  0.5099E-01 -0.2738E-02  0.2343E+00  0.2240E+00
     18.658  0.2520E-01  0.1042E-01  0.2382E+00  0.2256E+00
     18.814 -0.1598E-02  0.4928E-01  0.2379E+00  0.2333E+00
     18.971 -0.1007E-02  0.3042E-01  0.2378E+00  0.2381E+00
     19.127 -0.5207E-04 -0.6322E-03  0.2378E+00  0.2380E+00
     19.283 -0.6383E-06 -0.1272E-02  0.2378E+00  0.2378E+00
     19.439 -0.2109E-08 -0.7930E-04  0.2378E+00  0.2378E+00
     19.596 -0.1955E-11 -0.1137E-05  0.2378E+00  0.2378E+00
     19.752 -0.5115E-15 -0.4359E-08  0.2378E+00  0.2378E+00
     19.908  0.0000E+00 -0.4676E-11  0.2378E+00  0.2378E+00
     20.065  0.0000E+00 -0.1421E-14  0.2378E+00  0.2378E+00
     20.221  0.0000E+00  0.0000E+00  0.2378E+00  0.2378E+00
     20.377  0.0000E+00  0.0000E+00  0.2378E+00  0.2378E+00
     20.533  0.0000E+00  0.0000E+00  0.2378E+00  0.2378E+00
     20.690  0.0000E+00  0.0000E+00  0.2378E+00  0.2378E+00
     20.846  0.0000E+00  0.0000E+00  0.2378E+00  0.2378E+00
     21.002  0.0000E+00  0.0000E+00  0.2378E+00  0.2378E+00
     21.158  0.0000E+00  0.0000E+00  0.2378E+00  0.2378E+00
     21.315  0.0000E+00  0.0000E+00  0.2378E+00  0.2378E+00
     21.471  0.0000E+00  0.0000E+00  0.2378E+00  0.2378E+00
     21.627 -0.1906E-29  0.0000E+00  0.2378E+00  0.2378E+00
     21.783 -0.2768E-24  0.0000E+00  0.2378E+00  0.2378E+00
     21.940 -0.1172E-19 -0.1088E-29  0.2378E+00  0.2378E+00
     22.096 -0.1395E-15 -0.1670E-24  0.2378E+00  0.2378E+00
     22.252 -0.4932E-12 -0.7471E-20  0.2378E+00  0.2378E+00
     22.409 -0.4965E-09 -0.9404E-16  0.2378E+00  0.2378E+00
     22.565 -0.1401E-06 -0.3515E-12  0.2378E+00  0.2378E+00
     22.721 -0.1061E-04 -0.3744E-09  0.2378E+00  0.2378E+00
     22.877 -0.1881E-03 -0.1119E-06  0.2377E+00  0.2378E+00
     23.034 -0.1995E-03 -0.9006E-05  0.2377E+00  0.2378E+00
     23.190  0.4611E-02 -0.1715E-03  0.2384E+00  0.2377E+00
     23.346  0.8405E-02 -0.2553E-03  0.2397E+00  0.2377E+00
     23.502  0.2092E-02  0.4275E-02  0.2401E+00  0.2384E+00
     23.659 -0.4063E-03  0.8512E-02  0.2400E+00  0.2397E+00
     23.815 -0.8009E-04  0.2368E-02  0.2400E+00  0.2401E+00
     23.971 -0.2590E-05 -0.4051E-03  0.2400E+00  0.2400E+00
     24.127 -0.2106E-07 -0.9012E-04  0.2400E+00  0.2400E+00
     24.284 -0.4694E-10 -0.3113E-05  0.2400E+00  0.2400E+00
     24.440 -0.2957E-13 -0.2686E-07  0.2400E+00  0.2400E+00
     24.596 -0.6315E-17 -0.6339E-10  0.2400E+00  0.2400E+00
     24.752  0.0000E+00 -0.4223E-13  0.2400E+00  0.2400E+00
     24.909  0.0000E+00 -0.9473E-17  0.2400E+00  0.2400E+00
     25.065  0.0000E+00  0.0000E+00  0.2400E+00  0.2400E+00
     25.221  0.0000E+00  0.0000E+00  0.2400E+00  0.2400E+00
     25.378  0.0000E+00  0.0000E+00  0.2400E+00  0.2400E+00
     25.534  0.0000E+00  0.0000E+00  0.2400E+00  0.2400E+00
     25.690  0.0000E+00  0.0000E+00  0.2400E+00  0.2400E+00
