    2    2   50    2
  0.1759755E+02  0.2461200E-09  0.2461200E-09  0.6709000E-09  0.5000000E-15
  1.000000000000000E-004
  CAR 
 unknown system                          
      8      3     12
 
  0.1276756E-14  0.1276756E-14  0.1276756E-14  0.1111111E+00
      1        -19.058188      -18.760112   1.000000   1.000000
      2         -7.371088       -6.673222   1.000000   1.000000
      3         -2.533036       -2.405681   1.000000   1.000000
      4         -2.533036       -2.405681   1.000000   1.000000
      5          3.230948        3.390938  -0.000000  -0.000000
      6          8.239954        8.511325   0.000000   0.000000
      7          8.795073        8.898252   0.000000   0.000000
      8          8.795073        8.898252   0.000000   0.000000
      9         11.362874       11.716709   0.000000   0.000000
     10         11.497969       12.480718   0.000000   0.000000
     11         12.508853       13.265068   0.000000   0.000000
     12         23.239659       23.559177   0.000000   0.000000
 
  0.3333333E+00  0.1276756E-14  0.1276756E-14  0.6666667E+00
      1        -16.478863      -16.190089   1.000000   1.000000
      2         -9.161962       -8.942521   1.000000   1.000000
      3         -5.259454       -5.138587   1.000000   1.000000
      4         -4.416726       -3.673268   1.000000   1.000000
      5          5.010188        5.876625   0.000000   0.000000
      6          6.748869        6.919134   0.000000   0.000000
      7          8.025867        8.346088   0.000000   0.000000
      8         11.383480       11.686195   0.000000   0.000000
      9         14.735190       14.956504   0.000000   0.000000
     10         15.913443       16.225376   0.000000   0.000000
     11         16.689819       16.810286   0.000000   0.000000
     12         18.443533       18.774137   0.000000   0.000000
 
  0.3333333E+00  0.3333333E+00  0.1276756E-14  0.2222222E+00
      1        -12.165873      -11.869327   1.000000   1.000000
      2        -12.165873      -11.869327   1.000000   1.000000
      3         -9.991786       -9.898434   1.000000   1.000000
      4          0.136254        0.971405   1.000013  -0.000013
      5          0.136254        0.971405   1.000013  -0.000013
      6         11.149491       11.360651   0.000000   0.000000
      7         12.914166       13.204937   0.000000   0.000000
      8         12.914167       13.204937   0.000000   0.000000
      9         13.508670       13.595857   0.000000   0.000000
     10         15.996611       16.261178   0.000000   0.000000
     11         15.996612       16.261179   0.000000   0.000000
     12         17.941576       17.974210   0.000000   0.000000
