 vasp.6.5.0 16Dec24 (build Mar 16 2025 21:55:21) complex                        
  
 executed on             LinuxIFC date 2026.01.21  22:36:02
 running    4 mpi-ranks, with   40 threads/rank, on    1 nodes
 distrk:  each k-point on    4 cores,    1 groups
 distr:  one band on NCORE=   1 cores,    4 groups


--------------------------------------------------------------------------------------------------------


 INCAR:
   ISMEAR = 1
   SIGMA = 0.2
   ISIF = 3
   PREC = Accurate
   ISPIN = 2
   MAGMOM = 2*1
   NSW = 50
   IBRION = 2
   LWAVE = .FALSE.
   LREAL = .FALSE.
   EDIFF = 1E-5
   EDIFFG = -0.01
   ALGO = Fast

 POTCAR:    PAW_PBE C 08Apr2002                   
 POTCAR:    PAW_PBE C 08Apr2002                   
   SHA256 =  253f7b50bb8d59471dbedb8285d89021f4a42ed1a2c5d38a03a736e69125dd95 C/POTCAR              
   COPYR  = (c) Copyright 08Apr2002 Georg Kresse                                                    
   COPYR  = This file is part of the software VASP. Any use, copying, and all other rights are regul
   COPYR  = If you do not have a valid VASP license, you may not use, copy or distribute this file. 
   VRHFIN =C: s2p2                                                                                  
   LEXCH  = PE                                                                                      
   EATOM  =   147.1560 eV,   10.8157 Ry                                                             
                                                                                                    
   TITEL  = PAW_PBE C 08Apr2002                                                                     
   LULTRA =        F    use ultrasoft PP ?                                                          
   IUNSCR =        1    unscreen: 0-lin 1-nonlin 2-no                                               
   RPACOR =    1.200    partial core radius                                                         
   POMASS =   12.011; ZVAL   =    4.000    mass and valenz                                          
   RCORE  =    1.500    outmost cutoff radius                                                       
   RWIGS  =    1.630; RWIGS  =    0.863    wigner-seitz radius (au A)                               
   ENMAX  =  400.000; ENMIN  =  300.000 eV                                                          
   ICORE  =        2    local potential                                                             
   LCOR   =        T    correct aug charges                                                         
   LPAW   =        T    paw PP                                                                      
   EAUG   =  644.873                                                                                
   DEXC   =    0.000                                                                                
   RMAX   =    1.529    core radius for proj-oper                                                   
   RAUG   =    1.300    factor for augmentation sphere                                              
   RDEP   =    1.501    radius for radial grids                                                     
   RDEPT  =    1.300    core radius for aug-charge                                                  
                                                                                                    
   Atomic configuration                                                                             
    4 entries                                                                                       
     n  l   j            E        occ.                                                              
     1  0  0.50      -273.3789   2.0000                                                             
     2  0  0.50       -13.7508   2.0000                                                             
     2  1  0.50        -5.2854   2.0000                                                             
     3  2  1.50        -5.4423   0.0000                                                             
   Description                                                                                      
     l       E           TYP  RCUT    TYP  RCUT                                                     
     0    -13.7508458     23  1.200                                                                 
     0     -8.2022199     23  1.200                                                                 
     1     -5.2854383     23  1.500                                                                 
     1     34.0145650     23  1.500                                                                 
     2     -5.4423304      7  1.500                                                                 
  local pseudopotential read in
  partial core-charges read in
  partial kinetic energy density read in
  atomic valenz-charges read in
  non local Contribution for L=           0  read in
    real space projection operators read in
  non local Contribution for L=           0  read in
    real space projection operators read in
  non local Contribution for L=           1  read in
    real space projection operators read in
  non local Contribution for L=           1  read in
    real space projection operators read in
    PAW grid and wavefunctions read in
 
   number of l-projection  operators is LMAX  =           4
   number of lm-projection operators is LMMAX =           8
 
  PAW_PBE C 08Apr2002                   :
 energy of atom  1       EATOM= -147.1560
 kinetic energy error for atom=    0.0288 (will be added to EATOM!!)
 
 
 POSCAR: C
  positions in direct lattice
  No initial velocities read in


 exchange-correlation table for PE
   RHO(1)=    0.500       N(1)  =     2000
   RHO(2)=  100.500       N(2)  =     4000
 


--------------------------------------------------------------------------------------------------------


 ion  position               nearest neighbor table
   1  0.333  0.167  0.500-   2 1.42   2 1.42   2 1.42
   2  0.667  0.833  0.500-   1 1.42   1 1.42   1 1.42
 
  LATTYP: Found a hexagonal cell.
 ALAT       =     2.4612000000
 C/A-ratio  =     2.7259060621
  
  Lattice vectors:
  
 A1 = (   1.2306000000,  -2.1314617238,   0.0000000000)
 A2 = (   1.2306000000,   2.1314617238,   0.0000000000)
 A3 = (   0.0000000000,   0.0000000000,   6.7090000000)


Analysis of symmetry for initial positions (statically):
=====================================================================
 Subroutine PRICEL returns:
 Original cell was already a primitive cell.
 

 Routine SETGRP: Setting up the symmetry group for a 
 hexagonal supercell.


 Subroutine GETGRP returns: Found 24 space group operations
 (whereof  8 operations were pure point group operations)
 out of a pool of 24 trial point group operations.


The static configuration has the point symmetry D_2h.
 The point group associated with its full space group is D_6h.


Analysis of symmetry for dynamics (positions and initial velocities):
=====================================================================
 Subroutine PRICEL returns:
 Original cell was already a primitive cell.
 

 Routine SETGRP: Setting up the symmetry group for a 
 hexagonal supercell.


 Subroutine GETGRP returns: Found 24 space group operations
 (whereof  8 operations were pure point group operations)
 out of a pool of 24 trial point group operations.


The dynamic configuration has the point symmetry D_2h.
 The point group associated with its full space group is D_6h.


Analysis of constrained symmetry for selective dynamics:
=====================================================================
 Subroutine PRICEL returns:
 Original cell was already a primitive cell.
 

 Routine SETGRP: Setting up the symmetry group for a 
 hexagonal supercell.


 Subroutine GETGRP returns: Found 24 space group operations
 (whereof  8 operations were pure point group operations)
 out of a pool of 24 trial point group operations.


The constrained configuration has the point symmetry D_2h.
 The point group associated with its full space group is D_6h.


Analysis of structural, dynamic, and magnetic symmetry:
=====================================================================
 Subroutine PRICEL returns:
 Original cell was already a primitive cell.
 

 Routine SETGRP: Setting up the symmetry group for a 
 hexagonal supercell.


 Subroutine GETGRP returns: Found 24 space group operations
 (whereof  8 operations were pure point group operations)
 out of a pool of 24 trial point group operations.


The overall configuration has the point symmetry D_2h.
 The point group associated with its full space group is D_6h.


 Subroutine INISYM returns: Found 24 space group operations
 (whereof  8 operations are pure point group operations),
 and found     1 'primitive' translations


----------------------------------------------------------------------------------------

                                     Primitive cell                                     

  volume of cell :      35.1951

  direct lattice vectors                    reciprocal lattice vectors
     1.230600000 -2.131461724  0.000000000     0.406305867 -0.234580802  0.000000000
     1.230600000  2.131461724  0.000000000     0.406305867  0.234580802  0.000000000
     0.000000000  0.000000000  6.709000000     0.000000000  0.000000000  0.149053510

  length of vectors
     2.461200000  2.461200000  6.709000000     0.469161603  0.469161603  0.149053510

  position of ions in fractional coordinates (direct lattice)
     0.333333333  0.166666667  0.500000000
     0.666666667  0.833333333  0.500000000

  ion indices of the primitive-cell ions
   primitive index   ion index
                 1           1
                 2           2

----------------------------------------------------------------------------------------

 
 
 KPOINTS: pure                                    

Automatic generation of k-mesh.
 Grid dimensions read from file:
 generate k-points for:    3    3    1

 Generating k-lattice:

  Cartesian coordinates                     Fractional coordinates (reciprocal lattice)
     0.135435289 -0.078193601  0.000000000     0.333333333 -0.000000000  0.000000000
     0.135435289  0.078193601  0.000000000    -0.000000000  0.333333333  0.000000000
     0.000000000  0.000000000  0.149053510     0.000000000  0.000000000  1.000000000

  Length of vectors
     0.156387201  0.156387201  0.149053510

  Shift w.r.t. Gamma in fractional coordinates (k-lattice)
     0.000000000  0.000000000  0.000000000

 
 Subroutine IBZKPT returns following result:
 ===========================================
 
 Found      3 irreducible k-points:
 
 Following reciprocal coordinates:
            Coordinates               Weight
  0.000000  0.000000  0.000000      1.000000
  0.333333  0.000000  0.000000      6.000000
  0.333333  0.333333  0.000000      2.000000
 
 Following cartesian coordinates:
            Coordinates               Weight
  0.000000  0.000000  0.000000      1.000000
  0.135435 -0.078194  0.000000      6.000000
  0.270871  0.000000  0.000000      2.000000
 


--------------------------------------------------------------------------------------------------------




 Dimension of arrays:
   k-points           NKPTS =      3   k-points in BZ     NKDIM =      3   number of bands    NBANDS=     12
   number of dos      NEDOS =    301   number of ions     NIONS =      2
   non local maximal  LDIM  =      4   non local SUM 2l+1 LMDIM =      8
   total plane-waves  NPLWV =  12288
   max r-space proj   IRMAX =      1   max aug-charges    IRDMAX=   4319
   dimension x,y,z NGX =    16 NGY =   16 NGZ =   48
   dimension x,y,z NGXF=    32 NGYF=   32 NGZF=   96
   support grid    NGXF=    32 NGYF=   32 NGZF=   96
   ions per type =               2
   NGX,Y,Z   is equivalent  to a cutoff of  10.81, 10.81, 11.89 a.u.
   NGXF,Y,Z  is equivalent  to a cutoff of  21.61, 21.61, 23.79 a.u.

 SYSTEM =  unknown system                          
 POSCAR =  C                                       

 Startparameter for this run:
   NWRITE =      2    write-flag & timer
   PREC   = accura    normal or accurate (medium, high low for compatibility)
   ISTART =      0    job   : 0-new  1-cont  2-samecut
   ICHARG =      2    charge: 1-file 2-atom 10-const
   ISPIN  =      2    spin polarized calculation?
   LNONCOLLINEAR =      F non collinear calculations
   LSORBIT =      F    spin-orbit coupling
   INIWAV =      1    electr: 0-lowe 1-rand  2-diag
   LASPH  =      F    aspherical Exc in radial PAW
 Electronic Relaxation 1
   ENCUT  =  400.0 eV  29.40 Ry    5.42 a.u.   4.01  4.01 10.94*2*pi/ulx,y,z
   ENINI  =  400.0     initial cutoff
   ENAUG  =  644.9 eV  augmentation charge cutoff
   NELM   =     60;   NELMIN=  2; NELMDL=  0     # of ELM steps 
   EDIFF  = 0.1E-04   stopping-criterion for ELM
   LREAL  =      F    real-space projection
   NLSPLINE    = F    spline interpolate recip. space projectors
   LCOMPAT=      F    compatible to vasp.4.4
   GGA_COMPAT  = T    GGA compatible to vasp.4.4-vasp.4.6
   LMAXPAW     = -100 max onsite density
   LMAXMIX     =    2 max onsite mixed and CHGCAR
   VOSKOWN=      0    Vosko Wilk Nusair interpolation
   ROPT   =    0.00000
 Ionic relaxation
   EDIFFG = -.1E-01   stopping-criterion for IOM
   NSW    =     50    number of steps for IOM
   NBLOCK =      1;   KBLOCK =     50    inner block; outer block 
   IBRION =      2    ionic relax: 0-MD 1-quasi-New 2-CG
   NFREE  =      1    steps in history (QN), initial steepest desc. (CG)
   ISIF   =      3    stress and relaxation
   IWAVPR =     11    prediction:  0-non 1-charg 2-wave 3-comb
   ISYM   =      2    0-nonsym 1-usesym 2-fastsym
   LCORR  =      T    Harris-Foulkes like correction to forces

   POTIM  = 0.5000    time-step for ionic-motion
   TEIN   =    0.0    initial temperature
   TEBEG  =    0.0;   TEEND  =   0.0 temperature during run
   SMASS  =  -3.00    Nose mass-parameter (am)
   estimated Nose-frequenzy (Omega)   =  0.10E-29 period in steps = 0.13E+47 mass=  -0.138E-27a.u.
   SCALEE = 1.0000    scale energy and forces
   NPACO  =    256;   APACO  = 10.0  distance and # of slots for P.C.
   PSTRESS=    0.0 pullay stress

  Mass of Ions in am
   POMASS =  12.01
  Ionic Valenz
   ZVAL   =   4.00
  Atomic Wigner-Seitz radii
   RWIGS  =  -1.00
  virtual crystal weights 
   VCA    =   1.00
   NELECT =       8.0000    total number of electrons
   NUPDOWN=      -1.0000    fix difference up-down

 DOS related values:
   EMIN   =  10.00;   EMAX   =-10.00  energy-range for DOS
   EFERMI =   0.00;   METHOD = LEGACY      
   ISMEAR =     1;   SIGMA  =   0.20  broadening in eV -4-tet -1-fermi 0-gaus
   EFERMI_NEDOS =   21; number of points for ismear=-14 and -15

 Electronic relaxation 2 (details)
   IALGO  =     68    algorithm
   LDIAG  =      T    sub-space diagonalisation (order eigenvalues)
   LSUBROT=      F    optimize rotation matrix (better conditioning)
   TURBO    =      0    0=normal 1=particle mesh
   IRESTART =      0    0=no restart 2=restart with 2 vectors
   NREBOOT  =      0    no. of reboots
   NMIN     =      0    reboot dimension
   EREF     =   0.00    reference energy to select bands
   IMIX   =      4    mixing-type and parameters
     AMIX     =   0.40;   BMIX     =  1.00
     AMIX_MAG =   1.60;   BMIX_MAG =  1.00
     AMIN     =   0.10
     WC   =   100.;   INIMIX=   1;  MIXPRE=   1;  MAXMIX= -45

 Intra band minimization:
   WEIMIN = 0.0010     energy-eigenvalue tresh-hold
   EBREAK =  0.21E-06  absolut break condition
   DEPER  =   0.30     relativ break condition  

   TIME   =   0.40     timestep for ELM

  volume/ion in A,a.u.               =      17.60       118.75
  Fermi-wavevector in a.u.,A,eV,Ry     =   0.999104  1.888033 13.581458  0.998209
  Thomas-Fermi vector in A             =   2.131372
 
 Write flags
   LWAVE        =      F    write WAVECAR
   LDOWNSAMPLE  =      F    k-point downsampling of WAVECAR
   LCHARG       =      T    write CHGCAR
   LVTOT        =      F    write LOCPOT, total local potential
   LVHAR        =      F    write LOCPOT, Hartree potential only
   WRT_POTENTIAL= false  ! write potential to hdf5 file
   LELF         =      F    write electronic localiz. function (ELF)
   LORBIT       =      0    0 simple, 1 ext, 2 COOP (PROOUT), +10 PAW based schemes


 Python interface
   PLUGINS active      =      F    recompile with -DPLUGINS to activate
 
 Dipole corrections
   LMONO      =      F    monopole corrections only (constant potential shift)
   LDIPOL     =      F    correct potential (dipole corrections)
   IDIPOL     =      0    1-x, 2-y, 3-z, 4-all directions 
   EPSILON    =  1.0000000 bulk dielectric constant
   LVACPOTAV  =      F  vacuum potentials using an averaging scheme for the charge density
   VACPOTFLAT =  0.1000000 required flatness to determine vacuum potential
 
Coulomb truncation method
  LTRUNCATE          =      F  Coulomb kernel truncation to be used
  IDIMENSIONALITY    =      3  Dimensionality of cutoff (0 molecules / 2 surfaces)
  ISURFACE           =     -1  Direction of surface normal
  LCOARSEN           =      F  Coarsen the charge grid before padding, preferred

 
 Exchange correlation treatment:
   GGA     = PE    functional components
   XC_C    = 1    coefficients multiplying the functional components
   LIBXC   =     F    Libxc                    
   VOSKOWN =     0    Vosko Wilk Nusair interpolation
   LHFCALC =     F    Hartree Fock is set to
   LHFONE  =     F    Hartree Fock one center treatment
   AEXX    =    0.0000 exact exchange contribution

 Parameters of functionals:
   PE:
     No parameter
 
 Van der Waals corrections
   IVDW    =     0    specifies the selected vdW correction

 Linear response parameters
   LEPSILON=     F    determine dielectric tensor
   LRPA    =     F    only Hartree local field effects (RPA)
   LNABLA  =     F    use nabla operator in PAW spheres
   LVEL    =     F    velocity operator in full k-point grid
   CSHIFT  =0.1000    complex shift for real part using Kramers Kronig
   OMEGAMAX=  -1.0    maximum frequency
   DEG_THRESHOLD= 0.2000000E-02 threshold for treating states as degnerate
   RTIME   =   -0.100 relaxation time in fs
  (WPLASMAI=    0.000 imaginary part of plasma frequency in eV, 0.658/RTIME)
   DFIELD  = 0.0000000 0.0000000 0.0000000 field for delta impulse in time
 
  Optional k-point grid parameters
   LKPOINTS_OPT  =     F    use optional k-point grid
   KPOINTS_OPT_MODE=     1    mode for optional k-point grid
 
 Orbital magnetization related:
   ORBITALMAG=     F  switch on orbital magnetization
   LCHIMAG   =     F  perturbation theory with respect to B field
   DQ        =  0.001000  dq finite difference perturbation B field
   LLRAUG    =     F  two centre corrections for induced B field
   LBONE     =     F  B-component reconstruction in AE one-centre
   LVGVCALC  =     T  calculate vGv susceptibility
   LVGVAPPL  =     F  apply vGv susceptibility instead of pGv for G=0

 Random number generation:
   RANDOM_GENERATOR = DEFAULT
   PCG_SEED         = not used


--------------------------------------------------------------------------------------------------------


 conjugate gradient relaxation of ions
   using selective dynamics as specified on POSCAR
 charge density and potential will be updated during run
 spin polarized calculation
 RMM-DIIS sequential band-by-band and
  variant of blocked Davidson during initial phase
 perform sub-space diagonalisation
    before iterative eigenvector-optimisation
 modified Broyden-mixing scheme, WC =      100.0
 initial mixing is a Kerker type mixing with AMIX =  0.4000 and BMIX =      1.0000
 Hartree-type preconditioning will be used
 using additional bands            8
 reciprocal scheme for non local part
 use partial core corrections
 calculate Harris-corrections to forces 
   (improved forces if not selfconsistent)
 use gradient corrections 
 use of overlap-Matrix (Vanderbilt PP)
 Methfessel and Paxton  Order N= 1 SIGMA  =   0.20


--------------------------------------------------------------------------------------------------------


  energy-cutoff  :      400.00
  volume of cell :       35.20
      direct lattice vectors                 reciprocal lattice vectors
     1.230600000 -2.131461724  0.000000000     0.406305867 -0.234580802  0.000000000
     1.230600000  2.131461724  0.000000000     0.406305867  0.234580802  0.000000000
     0.000000000  0.000000000  6.709000000     0.000000000  0.000000000  0.149053510

  length of vectors
     2.461200000  2.461200000  6.709000000     0.469161603  0.469161603  0.149053510


 
 k-points in units of 2pi/SCALE and weight: pure                                    
   0.00000000  0.00000000  0.00000000       0.111
   0.13543529 -0.07819360  0.00000000       0.667
   0.27087058  0.00000000  0.00000000       0.222
 
 k-points in reciprocal lattice and weights: pure                                    
   0.00000000  0.00000000  0.00000000       0.111
   0.33333333  0.00000000  0.00000000       0.667
   0.33333333  0.33333333  0.00000000       0.222
 
 position of ions in fractional coordinates (direct lattice) 
   0.33333333  0.16666667  0.50000000
   0.66666667  0.83333333  0.50000000
 
 position of ions in cartesian coordinates  (Angst):
   0.61530000 -0.35524362  3.35450000
   1.84590000  0.35524362  3.35450000
 


--------------------------------------------------------------------------------------------------------


 k-point     1 :   0.0000 0.0000 0.0000  plane waves:     615
 k-point     2 :   0.3333 0.0000 0.0000  plane waves:     641
 k-point     3 :   0.3333 0.3333 0.0000  plane waves:     642

 maximum and minimum number of plane-waves per node :       642      615

 maximum number of plane-waves:       642
 maximum index in each direction: 
   IXMAX=    4   IYMAX=    4   IZMAX=   10
   IXMIN=   -4   IYMIN=   -4   IZMIN=  -10


 serial   3D FFT for wavefunctions
 parallel 3D FFT for charge:
    minimum data exchange during FFTs selected (reduces bandwidth)


 total amount of memory used by VASP MPI-rank0    34022. kBytes
=======================================================================

   base                                    :      30000. kBytes
   nonl-proj                               :        144. kBytes
   fftplans                                :        887. kBytes
   grid                                    :       2789. kBytes
   one-center                              :         12. kBytes
   wavefun                                 :        190. kBytes
 
     INWAV:  cpu time      0.0148: real time      0.0022
 Broyden mixing: mesh for mixing (old mesh)
   NGX =  9   NGY =  9   NGZ = 21
  (NGX  = 32   NGY  = 32   NGZ  = 96)
  gives a total of   1701 points

 initial charge density was supplied:
 charge density of overlapping atoms calculated
 number of electron       8.0000000 magnetization       2.0000000
 keeping initial charge density in first step


--------------------------------------------------------------------------------------------------------


 Maximum index for augmentation-charges          985 (set IRDMAX)


--------------------------------------------------------------------------------------------------------


 First call to EWALD:  gamma=   0.541
 Maximum number of real-space cells   4x   4x   2
 Maximum number of reciprocal cells   2x   2x   5

    FEWALD:  cpu time      0.4521: real time      0.0427


--------------------------------------- Ionic step        1  -------------------------------------------




--------------------------------------- Iteration      1(   1)  ---------------------------------------


    POTLOK:  cpu time     31.7164: real time      2.2695
    SETDIJ:  cpu time      2.7388: real time      0.3029
     EDDAV:  cpu time    211.1133: real time     19.7544
       DOS:  cpu time      0.0050: real time      0.0201
    --------------------------------------------
      LOOP:  cpu time    245.5736: real time     22.34     EDDAV:  cpu time    213.1415: real time     19.7330
       DOS:  cpu time      0.9312: real time      0.0803
    --------------------------------------------
      LOOP:  cpu time    238.8100: real time     22.0602

 eigenvalue-minimisations  :   144
 total energy-change (2. order) : 0.1800026E+02  (-0.3164397E+03)
 number of electron       8.0000000 magnetization       2.0000000
 augmentation part        8.0000000 magnetization       2.0000000

 Free energy of the ion-electron system (eV)
  ---------------------------------------------------
  alpha Z        PSCENC =         9.33615302
  Ewald energy   TEWEN  =        78.32347051
  -Hartree energ DENC   =      -327.63070537
  -exchange      EXHF   =         0.00000000
  -V(xc)+E(xc)   XCENC  =        26.71923927
  PAW double counting   =       216.78759577     -217.90869979
  entropy T*S    EENTRO =         0.00386527
  eigenvalues    EBANDS =       -61.88510684
  atomic energy  EATOM  =       294.25444774
  Solvation  Ediel_sol  =         0.00000000
  ---------------------------------------------------
  free energy    TOTEN  =        18.00025959 eV

  energy without entropy =       17.99639432  energy(sigma->0) =       17.99897117
     EDDAV:  cpu time    236.3818: real time     21.4821
       DOS:  cpu time      0.3150: real time      0.0262
    --------------------------------------------
      LOOP:  cpu time    236.6973: real time     21.50     EDDAV:  cpu time    234.5864: real time     23.8451
       DOS:  cpu time      0.0003: real time      0.0003
    --------------------------------------------
      LOOP:  cpu time    234.5863: real time     23.8454

 eigenvalue-minimisations  :   192
 total energy-change (2. order) :-0.3436036E+02  (-0.3149773E+02)
 number of electron       8.0000000 magnetization       2.0000000
 augmentation part        8.0000000 magnetization       2.0000000

 Free energy of the ion-electron system (eV)
  ---------------------------------------------------
  alpha Z        PSCENC =         9.33615302
  Ewald energy   TEWEN  =        78.32347051
  -Hartree energ DENC   =      -327.63070537
  -exchange      EXHF   =         0.00000000
  -V(xc)+E(xc)   XCENC  =        26.71923927
  PAW double counting   =       216.78759577     -217.90869979
  entropy T*S    EENTRO =         0.00195741
  eigenvalues    EBANDS =       -96.24355655
  atomic energy  EATOM  =       294.25444774
  Solvation  Ediel_sol  =         0.00000000
  ---------------------------------------------------
  free energy    TOTEN  =       -16.36009798 eV

  energy without entropy =      -16.36205539  energy(sigma->0) =      -16.36075045
     EDDAV:  cpu time    247.8222: real time     22.8672
       DOS:  cpu time      0.0010: real time      0.0004
    --------------------------------------------
      LOOP:  cpu time    247.8228: real time     22.86     EDDAV:  cpu time    239.1116: real time     22.8623
       DOS:  cpu time      0.0025: real time      0.0004
    --------------------------------------------
      LOOP:  cpu time    239.1141: real time     22.8627

 eigenvalue-minimisations  :   192
 total energy-change (2. order) :-0.2351403E+01  (-0.2309185E+01)
 number of electron       8.0000000 magnetization       2.0000000
 augmentation part        8.0000000 magnetization       2.0000000

 Free energy of the ion-electron system (eV)
  ---------------------------------------------------
  alpha Z        PSCENC =         9.33615302
  Ewald energy   TEWEN  =        78.32347051
  -Hartree energ DENC   =      -327.63070537
  -exchange      EXHF   =         0.00000000
  -V(xc)+E(xc)   XCENC  =        26.71923927
  PAW double counting   =       216.78759577     -217.90869979
  entropy T*S    EENTRO =         0.00257689
  eigenvalues    EBANDS =       -98.59557930
  atomic energy  EATOM  =       294.25444774
  Solvation  Ediel_sol  =         0.00000000
  ---------------------------------------------------
  free energy    TOTEN  =       -18.71150125 eV

  energy without entropy =      -18.71407813  energy(sigma->0) =      -18.71236021
     EDDAV:  cpu time    215.5023: real time     20.6054
       DOS:  cpu time      0.0127: real time      0.0169
    --------------------------------------------
      LOOP:  cpu time    215.5150: real time     20.62     EDDAV:  cpu time    229.6463: real time     21.5881
       DOS:  cpu time      0.0004: real time      0.0004
    --------------------------------------------
      LOOP:  cpu time    229.6466: real time     21.5886

 eigenvalue-minimisations  :   176
 total energy-change (2. order) :-0.2172917E-01  (-0.2172830E-01)
 number of electron       8.0000000 magnetization       2.0000000
 augmentation part        8.0000000 magnetization       2.0000000

 Free energy of the ion-electron system (eV)
  ---------------------------------------------------
  alpha Z        PSCENC =         9.33615302
  Ewald energy   TEWEN  =        78.32347051
  -Hartree energ DENC   =      -327.63070537
  -exchange      EXHF   =         0.00000000
  -V(xc)+E(xc)   XCENC  =        26.71923927
  PAW double counting   =       216.78759577     -217.90869979
  entropy T*S    EENTRO =         0.00257685
  eigenvalues    EBANDS =       -98.61730843
  atomic energy  EATOM  =       294.25444774
  Solvation  Ediel_sol  =         0.00000000
  ---------------------------------------------------
  free energy    TOTEN  =       -18.73323042 eV

  energy without entropy =      -18.73580727  energy(sigma->0) =      -18.73408937
     EDDAV:  cpu time    223.5599: real time     20.6280
       DOS:  cpu time      0.0004: real time      0.0004
    CHARGE:  cpu time      7.0281: real time      0.6702
    MIXING:  cpu time      1.9205: real time       EDDAV:  cpu time    199.6556: real time     19.6777
       DOS:  cpu time      0.8767: real time      0.0744
    CHARGE:  cpu time      7.7194: real time      0.7164
    MIXING:  cpu time      3.3729: real time      0.2936
    --------------------------------------------
      LOOP:  cpu time    211.6255: real time     20.7622

 eigenvalue-minimisations  :   172
 total energy-change (2. order) :-0.1152857E-03  (-0.1152852E-03)
 number of electron       8.0000000 magnetization       0.8370406
 augmentation part        0.2192981 magnetization       0.4226315

 Broyden mixing:
  rms(total) = 0.84471E+00    rms(broyden)= 0.84455E+00
  rms(prec ) = 0.11159E+01
  weight for this iteration     100.00

 Free energy of the ion-electron system (eV)
  ---------------------------------------------------
  alpha Z        PSCENC =         9.33615302
  Ewald energy   TEWEN  =        78.32347051
  -Hartree energ DENC   =      -327.63070537
  -exchange      EXHF   =         0.00000000
  -V(xc)+E(xc)   XCENC  =        26.71923927
  PAW double counting   =       216.78759577     -217.90869979
  entropy T*S    EENTRO =         0.00257685
  eigenvalues    EBANDS =       -98.61742371
  atomic energy  EATOM  =       294.25444774
  Solvation  Ediel_sol  =         0.00000000
  ---------------------------------------------------
  free energy    TOTEN  =       -18.73334570 eV

  energy without entropy =      -18.73592255  energy(sigma->0) =      -18.73420465


--------------------------------------------------------------------------------------------------------




---    EDDIAG:  cpu time     20.7659: real time      2.0014
  RMM-DIIS:  cpu time    121.6124: real time     10.8096
    ORTHCH:  cpu time      3.8816: real time      0.2875
       DOS:  cpu time      0.0044: real time      0.0004
    CHARGE:  cpu time     11.0737: real time    RMM-DIIS:  cpu time     91.1047: real time      9.1524
    ORTHCH:  cpu time      1.3511: real time      0.0817
       DOS:  cpu time      0.0068: real time      0.0004
    CHARGE:  cpu time      2.5440: real time      0.1627
    MIXING:  cpu time      0.8070: real time      0.0502
    --------------------------------------------
      LOOP:  cpu time    147.8938: real time     14.3410

 eigenvalue-minimisations  :   144
 total energy-change (2. order) : 0.7403131E+00  (-0.7064793E-01)
 number of electron       8.0000000 magnetization       0.4110109
 augmentation part        0.2114833 magnetization      -0.0077946

 Broyden mixing:
  rms(total) = 0.41259E+00    rms(broyden)= 0.41257E+00
  rms(prec ) = 0.58188E+00
  weight for this iteration     100.00

 eigenvalues of (default mixing * dielectric matrix)
  average eigenvalue GAMMA=   0.9947
  0.9947

 Free energy of the ion-electron system (eV)
  ---------------------------------------------------
  alpha Z        PSCENC =         9.33615302
  Ewald energy   TEWEN  =        78.32347051
  -Hartree energ DENC   =      -338.29874649
  -exchange      EXHF   =         0.00000000
  -V(xc)+E(xc)   XCENC  =        27.20212548
  PAW double counting   =       405.07630609     -406.36107710
  entropy T*S    EENTRO =         0.00257685
  eigenvalues    EBANDS =       -87.52828872
  atomic energy  EATOM  =       294.25444774
  Solvation  Ediel_sol  =         0.00000000
  ---------------------------------------------------
  free energy    TOTEN  =       -17.99303262 eV

  energy without entropy =      -17.99560946  energy(sigma->0) =      -17.99389157


--------------------------------------------------------------------------------------------------------




---    EDDIAG:  cpu time      5.4601: real time      0.2767
  RMM-DIIS:  cpu time     11.6624: real time      0.6163
    ORTHCH:  cpu time      2.2458: real time      0.1273
       DOS:  cpu time      0.0052: real time      0.0003
    CHARGE:  cpu time      4.5789: real time      0.2517
    MIXING:  cpu time      0.8412: real time      0.0459
    --------------------------------------------
      LOOP:  cpu time     44.4398: real time      2.7323

 eigenvalue-minimisations  :   145
 total energy-change (2. order) : 0.5068672E-01  (-0.5606235E-01)
 number of electron       8.0000000 magnetization       0.3669427
 augmentation part        0.2035667 magnetization      -0.0533709

 Broyden mixing:
  rms(total) = 0.19264E+00    rms(broyden)= 0.19260E+00
  rms(prec ) = 0.24525E+00
  weight for this iteration     100.00

 eigenvalues of (default mixing * dielectric matrix)
  average eigenvalue GAMMA=   1.2466
  0.7804  1.7129

 Free energy of the ion-electron system (eV)
  ---------------------------------------------------
  alpha Z        PSCENC =         9.33615302
  Ewald energy   TEWEN  =        78.32347051
  -Hartree energ DENC   =      -347.99915194
  -exchange      EXHF   =         0.00000000
  -V(xc)+E(xc)   XCENC  =        27.37990293
  PAW double counting   =       634.32133060     -635.70191653
  entropy T*S    EENTRO =         0.00370480
  eigenvalues    EBANDS =       -77.86028703
  atomic energy  EATOM  =       294.25444774
  Solvation  Ediel_sol  =         0.00000000
  ---------------------------------------------------
  free energy    TOTEN  =       -17.94234590 eV

  energy without entropy =      -17.94605070  energy(sigma->0) =      -17.94358083


--------------------------------------------------------------------------------------------------------




--------------------------------------- Iteration      1(   8)  ---------------------------------------


    POTLOK:  cpu time      5.9549: real time      0.3329
    SETDIJ:  cpu time      0.3624: real time      0.0215
    EDDIAG:  cpu time      3.4333: real time      0.1975
  RMM-DIIS:  cpu time     12.9198: real time      0.7522
    ORTHCH:  cpu time      1.1680: real time      0.0620
       DOS:  cpu time      0.0062: real time      0.0003
    CHARGE:  cpu time      1.6746: real time      0.0923
    MIXING:  cpu time      1.0738: real time      0.0580
    --------------------------------------------
      LOOP:  cpu time     26.5929: real time      1.5166

 eigenvalue-minimisations  :   144
 total energy-change (2. order) :-0.4793467E-02  (-0.1523383E-01)
 number of electron       8.0000000 magnetization       0.4365494
 augmentation part        0.2001869 magnetization       0.0185447

 Broyden mixing:
  rms(total) = 0.89923E-01    rms(broyden)= 0.89892E-01
  rms(prec ) = 0.11035E+00
  weight for this iteration     100.00

 eigenvalues of (default mixing * dielectric matrix)
  average eigenvalue GAMMA=   1.2607
  2.0776  0.9869  0.7176

 Free energy of the ion-electron system (eV)
  ---------------------------------------------------
  alpha Z        PSCENC =         9.33615302
  Ewald energy   TEWEN  =        78.32347051
  -Hartree energ DENC   =      -352.82989476
  -exchange      EXHF   =         0.00000000
  -V(xc)+E(xc)   XCENC  =        27.57461289
  PAW double counting   =       780.46884381     -781.87802362
  entropy T*S    EENTRO =         0.00258396
  eigenvalues    EBANDS =       -73.19933292
  atomic energy  EATOM  =       294.25444774
  Solvation  Ediel_sol  =         0.00000000
  ---------------------------------------------------
  free energy    TOTEN  =       -17.94713937 eV

  energy without entropy =      -17.94972332  energy(sigma->0) =      -17.94800069


--------------------------------------------------------------------------------------------------------




--------------------------------------- Iteration      1(   9)  ---------------------------------------


    POTLOK:  cpu time      3.4654: real time      0.1896
    SETDIJ:  cpu time      0.7975: real time      0.0467
    EDDIAG:  cpu time      6.4508: real time      0.3286
  RMM-DIIS:  cpu time     10.2821: real time      0.4588
    ORTHCH:  cpu time      0.7806: real time      0.0463
       DOS:  cpu time      0.0063: real time      0.0004
    CHARGE:  cpu time      1.3529: real time      0.0780
    MIXING:  cpu time      0.3948: real time      0.0242
    --------------------------------------------
      LOOP:  cpu time     23.5302: real time      1.1725

 eigenvalue-minimisations  :   145
 total energy-change (2. order) :-0.1877517E-01  (-0.2356137E-02)
 number of electron       8.0000000 magnetization       0.4662667
 augmentation part        0.1992375 magnetization       0.0476344

 Broyden mixing:
  rms(total) = 0.50424E-01    rms(broyden)= 0.50409E-01
  rms(prec ) = 0.66556E-01
  weight for this iteration     100.00

 eigenvalues of (default mixing * dielectric matrix)
  average eigenvalue GAMMA=   1.3582
  2.5191  1.4499  0.8267  0.6371

 Free energy of the ion-electron system (eV)
  ---------------------------------------------------
  alpha Z        PSCENC =         9.33615302
  Ewald energy   TEWEN  =        78.32347051
  -Hartree energ DENC   =      -354.00695516
  -exchange      EXHF   =         0.00000000
  -V(xc)+E(xc)   XCENC  =        27.59998166
  PAW double counting   =       834.24613393     -835.63985963
  entropy T*S    EENTRO =         0.00258835
  eigenvalues    EBANDS =       -72.08187497
  atomic energy  EATOM  =       294.25444774
  Solvation  Ediel_sol  =         0.00000000
  ---------------------------------------------------
  free energy    TOTEN  =       -17.96591454 eV

  energy without entropy =      -17.96850289  energy(sigma->0) =      -17.96677732


--------------------------------------------------------------------------------------------------------




--------------------------------------- Iteration      1(  10)  ---------------------------------------


    POTLOK:  cpu time      5.0690: real time      0.2874
    SETDIJ:  cpu time      0.3756: real time      0.0200
    EDDIAG:  cpu time      3.2483: real time      0.1740
  RMM-DIIS:  cpu time     11.5920: real time      0.6298
    ORTHCH:  cpu time      2.1515: real time      0.1142
       DOS:  cpu time      0.0073: real time      0.0004
    CHARGE:  cpu time      4.2285: real time      0.2259
    MIXING:  cpu time      1.9839: real time      0.1046
    --------------------------------------------
      LOOP:  cpu time     28.6565: real time      1.5563

 eigenvalue-minimisations  :   144
 total energy-change (2. order) : 0.1792130E-03  (-0.3607382E-03)
 number of electron       8.0000000 magnetization       0.4499050
 augmentation part        0.1990891 magnetization       0.0313292

 Broyden mixing:
  rms(total) = 0.16473E-01    rms(broyden)= 0.16467E-01
  rms(prec ) = 0.29865E-01
  weight for this iteration     100.00

 eigenvalues of (default mixing * dielectric matrix)
  average eigenvalue GAMMA=   1.3668
  2.5982  1.7343  1.0820  0.7953  0.6243

 Free energy of the ion-electron system (eV)
  ---------------------------------------------------
  alpha Z        PSCENC =         9.33615302
  Ewald energy   TEWEN  =        78.32347051
  -Hartree energ DENC   =      -354.69144991
  -exchange      EXHF   =         0.00000000
  -V(xc)+E(xc)   XCENC  =        27.61172830
  PAW double counting   =       869.77115229     -871.14662775
  entropy T*S    EENTRO =         0.00257970
  eigenvalues    EBANDS =       -71.42718922
  atomic energy  EATOM  =       294.25444774
  Solvation  Ediel_sol  =         0.00000000
  ---------------------------------------------------
  free energy    TOTEN  =       -17.96573533 eV

  energy without entropy =      -17.96831503  energy(sigma->0) =      -17.96659523


--------------------------------------------------------------------------------------------------------




--------------------------------------- Iteration      1(  11)  ---------------------------------------


    POTLOK:  cpu time      6.8027: real time      0.3635
    SETDIJ:  cpu time      0.3698: real time      0.0204
    EDDIAG:  cpu time      5.7948: real time      0.3122
  RMM-DIIS:  cpu time     11.8307: real time      0.7196
    ORTHCH:  cpu time      3.5413: real time      0.2350
       DOS:  cpu time      0.0054: real time      0.0003
    CHARGE:  cpu time      4.1816: real time    RMM-DIIS:  cpu time     15.4143: real time      0.7767
    ORTHCH:  cpu time      3.3209: real time      0.1763
       DOS:  cpu time      0.0062: real time      0.0003
    CHARGE:  cpu time      3.4166: real time      0.1949
    MIXING:  cpu time      0.5954: real time      0.0327
    --------------------------------------------
      LOOP:  cpu time     56.7033: real time      3.0200

 eigenvalue-minimisations  :   144
 total energy-change (2. order) :-0.2601996E-02  (-0.2025528E-03)
 number of electron       8.0000000 magnetization       0.4441367
 augmentation part        0.1990403 magnetization       0.0255667

 Broyden mixing:
  rms(total) = 0.71633E-02    rms(broyden)= 0.71600E-02
  rms(prec ) = 0.15552E-01
  weight for this iteration     100.00

 eigenvalues of (default mixing * dielectric matrix)
  average eigenvalue GAMMA=   1.3591
  2.3291  2.3291  1.3065  0.8605  0.7073  0.6220

 Free energy of the ion-electron system (eV)
  ---------------------------------------------------
  alpha Z        PSCENC =         9.33615302
  Ewald energy   TEWEN  =        78.32347051
  -Hartree energ DENC   =      -355.13071773
  -exchange      EXHF   =         0.00000000
  -V(xc)+E(xc)   XCENC  =        27.61619071
  PAW double counting   =       880.69054408     -882.05764251
  entropy T*S    EENTRO =         0.00257994
  eigenvalues    EBANDS =       -71.00336309
  atomic energy  EATOM  =       294.25444774
  Solvation  Ediel_sol  =         0.00000000
  ---------------------------------------------------
  free energy    TOTEN  =       -17.96833732 eV

  energy without entropy =      -17.97091726  energy(sigma->0) =      -17.96919730


--------------------------------------------------------------------------------------------------------




--------------------------------------- Iteration      1(  1  RMM-DIIS:  cpu time     11.7666: real time      0.6099
    ORTHCH:  cpu time      3.6714: real time      0.1867
       DOS:  cpu time      0.0065: real time      0.0003
    CHARGE:  cpu time      3.1477: real time    RMM-DIIS:  cpu time     13.7572: real time      0.8688
    ORTHCH:  cpu time      1.2597: real time      0.0789
       DOS:  cpu time      0.0055: real time      0.0003
    CHARGE:  cpu time      2.2412: real time      0.1343
    MIXING:  cpu time      0.6451: real time      0.0377
    --------------------------------------------
      LOOP:  cpu time     30.1663: real time      1.8579

 eigenvalue-minimisations  :   144
 total energy-change (2. order) :-0.1378940E-02  (-0.4666795E-04)
 number of electron       8.0000000 magnetization       0.4434516
 augmentation part        0.1989924 magnetization       0.0248843

 Broyden mixing:
  rms(total) = 0.50664E-02    rms(broyden)= 0.50652E-02
  rms(prec ) = 0.10579E-01
  weight for this iteration     100.00

 eigenvalues of (default mixing * dielectric matrix)
  average eigenvalue GAMMA=   1.3606
  2.4073  2.4073  1.3676  1.1786  0.8508  0.6981  0.6147

 Free energy of the ion-electron system (eV)
  ---------------------------------------------------
  alpha Z        PSCENC =         9.33615302
  Ewald energy   TEWEN  =        78.32347051
  -Hartree energ DENC   =      -355.33443373
  -exchange      EXHF   =         0.00000000
  -V(xc)+E(xc)   XCENC  =        27.61843273
  PAW double counting   =       878.83319591     -880.19950649
  entropy T*S    EENTRO =         0.00258191
  eigenvalues    EBANDS =       -70.80405786
  atomic energy  EATOM  =       294.25444774
  Solvation  Ediel_sol  =         0.00000000
  ---------------------------------------------------
  free energy    TOTEN  =       -17.96971626 eV

  energy without entropy =      -17.97229817  energy(sigma->0) =      -17.97057690


--------------------------------------------------------------------------------------------------------




---    EDDIAG:  cpu time     12.1804: real time      0.6421
  RMM-DIIS:  cpu time     12.1035: real time      0.6162
    ORTHCH:  cpu time      0.4301: real time      0.0217
       DOS:  cpu time      0.0075: real time      0.0004
    CHARGE:  cpu time      1.9802: real time      0.1028
    MIXING:  cpu time      0.5314: real time      0.0273
    --------------------------------------------
      LOOP:  cpu time     41.2305: real time      2.1113

 eigenvalue-minimisations  :   142
 total energy-change (2. order) :-0.6298333E-03  (-0.2491923E-04)
 number of electron       8.0000000 magnetization       0.4440075
 augmentation part        0.1989233 magnetization       0.0254363

 Broyden mixing:
  rms(total) = 0.18823E-02    rms(broyden)= 0.18807E-02
  rms(prec ) = 0.24944E-02
  weight for this iteration     100.00

 eigenvalues of (default mixing * dielectric matrix)
  average eigenvalue GAMMA=   1.5959
  4.0049  2.5802  2.0211  1.3041  0.8710  0.7300  0.6018  0.6545

 Free energy of the ion-electron system (eV)
  ---------------------------------------------------
  alpha Z        PSCENC =         9.33615302
  Ewald energy   TEWEN  =        78.32347051
  -Hartree energ DENC   =      -355.72926370
  -exchange      EXHF   =         0.00000000
  -V(xc)+E(xc)   XCENC  =        27.62583645
  PAW double counting   =       872.25441457     -873.62094946
  entropy T*S    EENTRO =         0.00258134
  eigenvalues    EBANDS =       -70.41703657
  atomic energy  EATOM  =       294.25444774
  Solvation  Ediel_sol  =         0.00000000
  ---------------------------------------------------
  free energy    TOTEN  =       -17.97034610 eV

  energy without entropy =      -17.97292744  energy(sigma->0) =      -17.97120655


--------------------------------------------------------------------------------------------------------




--------------------------------------- Iteration      1(  14)  ---------------------------------------


    POTLOK:  cpu time      7.7657: real time      0.4394
    SETDIJ:  cpu time      0.6062: real time      0.0330
    EDDIAG:  cpu time      2.9754: real time      0.1578
  RMM-DIIS:  cpu time      9.6865: real time      0.5509
    ORTHCH:  cpu time      2.0366: real time      0.1220
       DOS:  cpu time      0.1584: real time      0.0099
    CHARGE:  cpu time      2.7501: real time      0.1647
    MIXING:  cpu time      1.9438: real time      0.1147
    --------------------------------------------
      LOOP:  cpu time     27.9232: real time      1.5923

 eigenvalue-minimisations  :   129
 total energy-change (2. order) :-0.1109822E-03  (-0.7469345E-05)
 number of electron       8.0000000 magnetization       0.4444548
 augmentation part        0.1989024 magnetization       0.0258690

 Broyden mixing:
  rms(total) = 0.54878E-03    rms(broyden)= 0.54760E-03
  rms(prec ) = 0.80953E-03
  weight for this iteration     100.00

 eigenvalues of (default mixing * dielectric matrix)
  average eigenvalue GAMMA=   1.5642
  4.3203  2.5275  2.1078  1.3094  0.9561  0.8396  0.7380  0.6177  0.6619

 Free energy of the ion-electron system (eV)
  ---------------------------------------------------
  alpha Z        PSCENC =         9.33615302
  Ewald energy   TEWEN  =        78.32347051
  -Hartree energ DENC   =      -355.79835633
  -exchange      EXHF   =         0.00000000
  -V(xc)+E(xc)   XCENC  =        27.62753542
  PAW double counting   =       872.53894578     -873.90565544
  entropy T*S    EENTRO =         0.00258150
  eigenvalues    EBANDS =       -70.34957927
  atomic energy  EATOM  =       294.25444774
  Solvation  Ediel_sol  =         0.00000000
  ---------------------------------------------------
  free energy    TOTEN  =       -17.97045708 eV

  energy without entropy =      -17.97303858  energy(sigma->0) =      -17.97131758


--------------------------------------------------------------------------------------------------------




--------------------------------------- Iteration      1(  15)  ---------------------------------------


    POTLOK:  cpu time      4.1134: real time      0.2414
    SETDIJ:  cpu time      0.6286: real time      0.0379
    EDDIAG:  cpu time      4.0098: real time      0.2241
  RMM-DIIS:  cpu time     13.1119: real time      0.6902
    ORTHCH:  cpu time      5.4708: real time      0.2922
       DOS:  cpu time      0.0064: real time      0.0004
    CHARGE:  cpu time      4.1887: real time      0.2462
    MIXING:  cpu time      1.4644: real time      0.0863
    --------------------------------------------
      LOOP:  cpu time     32.9941: real time      1.8187

 eigenvalue-minimisations  :   117
 total energy-change (2. order) :-0.1736890E-04  (-0.1159522E-05)
 number of electron       8.0000000 magnetization       0.4445476
 augmentation part        0.1988838 magnetization       0.0259539

 Broyden mixing:
  rms(total) = 0.26276E-03    rms(broyden)= 0.26199E-03
  rms(prec ) = 0.37186E-03
  weight for this iteration     100.00

 eigenvalues of (default mixing * dielectric matrix)
  average eigenvalue GAMMA=   1.5934
  4.5537  2.5801  2.2171  1.6649  1.3092  0.8692  0.7485  0.6290  0.6963  0.6664

 Free energy of the ion-electron system (eV)
  ---------------------------------------------------
  alpha Z        PSCENC =         9.33615302
  Ewald energy   TEWEN  =        78.32347051
  -Hartree energ DENC   =      -355.83030860
  -exchange      EXHF   =         0.00000000
  -V(xc)+E(xc)   XCENC  =        27.62841290
  PAW double counting   =       872.68298567     -874.04992053
  entropy T*S    EENTRO =         0.00258153
  eigenvalues    EBANDS =       -70.31829669
  atomic energy  EATOM  =       294.25444774
  Solvation  Ediel_sol  =         0.00000000
  ---------------------------------------------------
  free energy    TOTEN  =       -17.97047445 eV

  energy without entropy =      -17.97305598  energy(sigma->0) =      -17.97133496


--------------------------------------------------------------------------------------------------------




--------------------------------------- Iteration      1(  16)  ---------------------------------------


    POTLOK:  cpu time      7.2488: real time      0.4091
    SETDIJ:  cpu time      0.6586: real time      0.0385
    EDDIAG:  cpu time      8.3812: real time      0.5018
  RMM-DIIS:  cpu time     12.1588: real time      0.7032
    ORTHCH:  cpu time      1.4419: real time      0.0503
       DOS:  cpu time      0.0084: real time      0.0003
    --------------------------------------------
      LOOP:  cpu time     29.8967: real time      1.7032

 eigenvalue-minimisations  :   107
 total energy-change (2. order) :-0.3034851E-05  (-0.1546940E-06)
 number of electron       8.0000000 magnetization       0.4445476
 augmentation part        0.1988838 magnetization       0.0259539

 Free energy of the ion-electron system (eV)
  ---------------------------------------------------
  alpha Z        PSCENC =         9.33615302
  Ewald energy   TEWEN  =        78.32347051
  -Hartree energ DENC   =      -355.82665656
  -exchange      EXHF   =         0.00000000
  -V(xc)+E(xc)   XCENC  =        27.62816385
  PAW double counting   =       872.50800758     -873.87495959
  entropy T*S    EENTRO =         0.00258150
  eigenvalues    EBANDS =       -70.32168554
  atomic energy  EATOM  =       294.25444774
  Solvation  Ediel_sol  =         0.00000000
  ---------------------------------------------------
  free energy    TOTEN  =       -17.97047748 eV

  energy without entropy =      -17.97305899  energy(sigma->0) =      -17.97133798


--------------------------------------------------------------------------------------------------------




 average (electrostatic) potential at core
  the test charge radii are     0.6991
  (the norm of the test charge is              1.0000)
       1 -55.0757       2 -55.0757
 
 
 
 E-fermi :   0.0804     XC(G=0):  -6.1297     alpha+bet : -5.6953

 val. band max:       -0.0879525149   @ k =   0.3333   0.3333   0.0000
 cond. band min:       0.7490262823   @ k =   0.3333   0.3333   0.0000
 fundamental gap:      0.8369787972
 Fermi energy:         0.0804349250

 spin component 1

 k-point     1 :       0.0000    0.0000    0.0000
  band No.  band energies     occupation 
      1     -19.3980      1.00000
      2      -7.6921      1.00000
      3      -2.7598      1.00000
      4      -2.7598      1.00000
      5       2.9786     -0.00000
      6       7.2774      0.00000
      7       8.6537      0.00000
      8       8.6537      0.00000
      9      10.1041      0.00000
     10      11.3179      0.00000
     11      12.5835      0.00000
     12      22.7151      0.00000

 k-point     2 :       0.3333    0.0000    0.0000
  band No.  band energies     occupation 
      1     -16.7973      1.00000
      2      -9.4326      1.00000
      3      -5.5211      1.00000
      4      -4.7014      1.00000
      5       4.8404      0.00000
      6       6.5382      0.00000
      7       7.9224      0.00000
      8      10.5630      0.00000
      9      13.4529      0.00000
     10      15.9328      0.00000
     11      16.6604      0.00000
     12      17.9903      0.00000

 k-point     3 :       0.3333    0.3333    0.0000
  band No.  band energies     occupation 
      1     -12.4375      1.00000
      2     -12.4375      1.00000
      3     -10.3222      1.00000
      4      -0.0880      1.00001
      5      -0.0880      1.00001
      6      10.8900      0.00000
      7      12.8240      0.00000
      8      12.8240      0.00000
      9      13.3898      0.00000
     10      15.8308      0.00000
     11      15.8309      0.00000
     12      17.4990      0.00000
 Fermi energy:         0.0804349250

 spin component 2

 k-point     1 :       0.0000    0.0000    0.0000
  band No.  band energies     occupation 
      1     -19.0988      1.00000
      2      -6.9931      1.00000
      3      -2.6311      1.00000
      4      -2.6311      1.00000
      5       3.1323     -0.00000
      6       7.5230      0.00000
      7       8.7580      0.00000
      8       8.7580      0.00000
      9      10.3168      0.00000
     10      12.4393      0.00000
     11      13.3450      0.00000
     12      21.1033      0.00000

 k-point     2 :       0.3333    0.0000    0.0000
  band No.  band energies     occupation 
      1     -16.5077      1.00000
      2      -9.2124      1.00000
      3      -5.3991      1.00000
      4      -3.9567      1.00000
      5       5.7060      0.00000
      6       6.7020      0.00000
      7       8.2441      0.00000
      8      10.8393      0.00000
      9      13.6633      0.00000
     10      16.2441      0.00000
     11      16.7823      0.00000
     12      18.3159      0.00000

 k-point     3 :       0.3333    0.3333    0.0000
  band No.  band energies     occupation 
      1     -12.1398      1.00000
      2     -12.1398      1.00000
      3     -10.2281      1.00000
      4       0.7490     -0.00001
      5       0.7490     -0.00001
      6      11.0996      0.00000
      7      13.1116      0.00000
      8      13.1116      0.00000
      9      13.4756      0.00000
     10      16.0908      0.00000
     11      16.0908      0.00000
     12      17.5367      0.00000


--------------------------------------------------------------------------------------------------------


 soft charge-density along one line, spin component           1
         0         1         2         3         4         5         6         7         8         9
 total charge-density along one line
 
 soft charge-density along one line, spin component           2
         0         1         2         3         4         5         6         7         8         9
 total charge-density along one line
 
 pseudopotential strength for first ion, spin component:           1
 10.049  13.360   0.000   0.000   0.000  -0.000  -0.000  -0.000
 13.360  17.761   0.000   0.000   0.000  -0.000  -0.000  -0.000
  0.000   0.000  -4.181   0.000   0.000   8.174  -0.000  -0.000
  0.000   0.000   0.000  -4.195   0.000  -0.000   8.203  -0.000
  0.000   0.000   0.000   0.000  -4.181  -0.000  -0.000   8.174
 -0.000  -0.000   8.174  -0.000  -0.000 -18.108   0.000   0.000
 -0.000  -0.000  -0.000   8.203  -0.000   0.000 -18.168   0.000
 -0.000  -0.000  -0.000  -0.000   8.174   0.000   0.000 -18.108
 pseudopotential strength for first ion, spin component:           2
 10.007  13.303   0.000  -0.000   0.000  -0.000   0.000  -0.000
 13.303  17.683   0.000  -0.000   0.000  -0.000   0.000  -0.000
  0.000   0.000  -4.182   0.000   0.000   8.185  -0.000  -0.000
 -0.000  -0.000   0.000  -4.151   0.000  -0.000   8.135  -0.000
  0.000   0.000   0.000   0.000  -4.182  -0.000  -0.000   8.185
 -0.000  -0.000   8.185  -0.000  -0.000 -18.145   0.000   0.000
  0.000   0.000  -0.000   8.135  -0.000   0.000 -18.065   0.000
 -0.000  -0.000  -0.000  -0.000   8.185   0.000   0.000 -18.145
 total augmentation occupancy for first ion, spin component:           1
  8.391  -3.763   0.000   0.000  -0.000  -0.000   0.000   0.000
 -3.763   1.731  -0.000   0.000  -0.000   0.000   0.000   0.000
  0.000  -0.000   1.856   0.000   0.000   0.173   0.000   0.000
  0.000   0.000   0.000   1.206  -0.000  -0.000   0.076   0.000
 -0.000  -0.000   0.000   0.000   1.856  -0.000  -0.000   0.173
 -0.000   0.000   0.173  -0.000   0.000   0.018  -0.000   0.000
  0.000   0.000   0.000   0.076  -0.000  -0.000   0.005   0.000
  0.000   0.000   0.000  -0.000   0.173   0.000   0.000   0.018
 total augmentation occupancy for first ion, spin component:           2
  0.017  -0.006   0.000   0.000   0.000   0.000   0.000   0.000
 -0.006   0.002  -0.000   0.000   0.000   0.000   0.000   0.000
  0.000  -0.000  -0.004   0.000  -0.000   0.000  -0.000  -0.000
  0.000   0.000   0.000   0.277   0.000   0.000   0.005   0.000
  0.000   0.000  -0.000   0.000  -0.004   0.000  -0.000   0.000
  0.000   0.000   0.000   0.000  -0.000   0.000   0.000   0.000
  0.000   0.000  -0.000   0.005  -0.000  -0.000  -0.000   0.000
  0.000   0.000   0.000   0.000   0.000   0.000   0.000   0.000


------------------------ aborting loop because EDIFF is reached ----------------------------------------


    CHARGE:  cpu time      0.4562: real time      0.0147
    FORLOC:  cpu time      0.0420: real time      0.0014
    FORNL :  cpu time      0.1932: real time      0.0057
    STRESS:  cpu time      1.2070: real time      0.0351
    FORCOR:  cpu time      0.7612: real time      0.0211
    FORHAR:  cpu time      0.1404: real time      0.0039
    MIXING:  cpu time      0.0842: real time      0.0023
    OFIELD:  cpu time      0.0006: real time      0.0000

  FORCE on cell =-STRESS in cart. coord.  units (eV):
  Direction    XX          YY          ZZ          XY          YZ          ZX
  --------------------------------------------------------------------------------------
  Alpha Z     9.33615     9.33615     9.33615
  Ewald     347.72054   347.72054  -617.11774    -0.00000     0.00000     0.00000
  Hartree   344.42493   344.42493  -333.03560    -0.00000    -0.00000    -0.00000
  E(xc)     -29.81305   -29.81305   -30.93708     0.00000    -0.00000     0.00000
  Local    -784.03240  -784.03233   841.57975    -0.00000     0.00000    -0.00000
  n-local    -7.90949    -7.82319    -7.14189     0.07473    -0.00000     0.00000
  augment    -0.80616    -0.80621    -0.75484    -0.00000    -0.00000    -0.00000
  Kinetic   120.71955   122.55135   137.82176     1.58638     0.00000    -0.00000
  Fock        0.00000     0.00000     0.00000     0.00000     0.00000     0.00000
  -------------------------------------------------------------------------------------
  Total       0.59914     0.59914    -0.24948     0.00000     0.00000     0.00000
  in kB      27.27435    27.27435   -11.35694     0.00000     0.00000     0.00000
  external pressure =       14.40 kB  Pullay stress =        0.00 kB


 VOLUME and BASIS-vectors are now :
 -----------------------------------------------------------------------------
  energy-cutoff  :      400.00
  volume of cell :       35.20
      direct lattice vectors                 reciprocal lattice vectors
     1.230600000 -2.131461724  0.000000000     0.406305867 -0.234580802  0.000000000
     1.230600000  2.131461724  0.000000000     0.406305867  0.234580802  0.000000000
     0.000000000  0.000000000  6.709000000     0.000000000  0.000000000  0.149053510

  length of vectors
     2.461200000  2.461200000  6.709000000     0.469161603  0.469161603  0.149053510


 FORCES acting on ions
    electron-ion (+dipol)            ewald-force                    non-local-force                 convergence-correction
 -----------------------------------------------------------------------------------------------
   -.907E-11 0.188E-05 0.738E-13   0.127E-13 -.479E-09 -.253E-17   0.139E-16 0.222E-15 0.000E+00   0.430E-15 -.977E-08 -.942E-16
   -.902E-11 -.188E-05 0.780E-12   -.952E-14 0.479E-09 0.253E-17   0.180E-15 -.833E-16 0.000E+00   -.527E-15 0.977E-08 0.396E-15
 -----------------------------------------------------------------------------------------------
   -.181E-10 0.895E-11 0.854E-12   0.314E-14 -.161E-14 0.000E+00   0.194E-15 0.139E-15 0.000E+00   -.969E-16 -.233E-15 0.302E-15
 
 
 POSITION                                       TOTAL-FORCE (eV/Angst)
 -----------------------------------------------------------------------------------
      0.61530     -0.35524      3.35450        -0.000000     -0.000000      0.000000
      1.84590      0.35524      3.35450         0.000000      0.000000     -0.000000
 -----------------------------------------------------------------------------------
    total drift:                               -0.000000      0.000000      0.000000


--------------------------------------------------------------------------------------------------------



  FREE ENERGIE OF THE ION-ELECTRON SYSTEM (eV)
  ---------------------------------------------------
  free  energy   TOTEN  =       -17.97047748 eV

  energy  without entropy=      -17.97305899  energy(sigma->0) =      -17.97133798
 


--------------------------------------------------------------------------------------------------------


    POTLOK:  cpu time      1.0491: real time      0.0292


--------------------------------------------------------------------------------------------------------




--------------------------------------------------------------------------------------------------------


    WAVPRE:  cpu time     16.3909: real time      2.5044
    FEWALD:  cpu time      0.0501: real time      0.0015
    GENKIN:  cpu time      0.0320: real time      0.0009
    ORTHCH:  cpu time      0.3641: real time      WAVPRE:  cpu time     11.4128: real time      2.9217
    FEWALD:  cpu time      0.4977: real time      0.0277
    GENKIN:  cpu time      0.0189: real time      0.0010
    ORTHCH:  cpu time      0.2658: real time      0.0151
     LOOP+:  cpu time   1602.2627: real time    144.7325
    POTLOK:  cpu time      1.4420: real time      0.0819
    SETDIJ:  cpu time      0.1998: real time      0.0103
     EDDAV:  cpu time     21.6816: real time      0.6758
       DOS:  cpu time      7.0904: real time      0.2341
    CHARGE:  cpu time      0.4174: real time      0.3683
    MIXING:  cpu time      0.0871: real time      0.0024
    --------------------------------------------
      LOOP:  cpu time     30.9196: real time      1.3729

 eigenvalue-minimisations  :   168
 total energy-change (2. order) : 0.9319054E-03  (-0.6760453E-01)
 number of electron       7.9999998 magnetization       0.4444697
 augmentation part        0.1915258 magnetization       0.0256813

 Broyden mixing:
  rms(total) = 0.49824E-01    rms(broyden)= 0.49814E-01
  rms(prec ) = 0.80498E-01
  weight for this iteration     100.00

 Free energy of the ion-electron system (eV)
  ---------------------------------------------------
  alpha Z        PSCENC =         9.12696424
  Ewald energy   TEWEN  =        64.93279079
  -Hartree energ DENC   =      -344.13040899
  -exchange      EXHF   =         0.00000000
  -V(xc)+E(xc)   XCENC  =        27.42695226
  PAW double counting   =       872.52344563     -873.89032879
  entropy T*S    EENTRO =         0.00258134
  eigenvalues    EBANDS =       -68.21598678
  atomic energy  EATOM  =       294.25444774
  Solvation  Ediel_sol  =         0.00000000
  ---------------------------------------------------
  free energy    TOTEN  =       -17.96954254 eV

  energy without entropy =      -17.97212389  energy(sigma->0) =      -17.97040299


--------------------------------------------------------------------------------------------------------




--------------------------------------- Iteration      2(   2)  ---------------------------------------


    POTLOK:  cpu time      1.0695: real time      0.0297
    SETDIJ:  cpu time      0.1864: real time      0.0052
    EDDIAG:  cpu time      0.9088: real time      0.0252


--------------------------------------- Ionic step        2  -------------------------------------------




--------------------------------------- Iteration      2(   1)  ---------------------------------------


    POTLOK:  cpu time      1.7635: real time      0.0709
    SETDIJ:  cpu time      0.2008: real time      0.0090
     EDDAV:  cpu time     18.4563: real time      1.0064
       DOS:  cpu time      0.0782: real time      0.0040
    CHARGE:  cpu time      0.6884: real time      0.0377
    MIXING:  cpu time      0.1648: real time      0.0101
    --------------------------------------------
      LOOP:  cpu time     21.3525: real time      1.1382

 eigenvalue-minimisations  :   168
 total energy-change (2. order) : 0.9319054E-03  (-0.6760453E-01)
 number of electron       7.9999998 magnetization       0.4444697
 augmentation part        0.1915258 magnetization       0.0256813

 Broyden mixing:
  rms(total) = 0.49824E-01    rms(broyden)= 0.49814E-01
  rms(prec ) = 0.80498E-01
  weight for this iteration     100.00

 Free energy of the ion-electron system (eV)
  ---------------------------------------------------
  alpha Z        PSCENC =         9.12696424
  Ewald energy   TEWEN  =        64.93279079
  -Hartree energ DENC   =      -344.13040899
  -exchange      EXHF   =         0.00000000
  -V(xc)+E(xc)   XCENC  =        27.42695226
  PAW double counting   =       872.52344563     -873.89032879
  entropy T*S    EENTRO =         0.00258134
  eigenvalues    EBANDS =       -68.21598678
  atomic energy  EATOM  =       294.25444774
  Solvation  Ediel_sol  =         0.00000000
  ---------------------------------------------------
  free energy    TOTEN  =       -17.96954254 eV

  energy without entropy =      -17.97212389  energy(sigma->0) =      -17.97040299


--------------------------------------------------------------------------------------------------------




--------------------------------------- Iteration      2(   2)  ---------------------------------------  RMM-DIIS:  cpu time     12.8577: real time      0.6830
    ORTHCH:  cpu time      2.1529: real time      0.1133
       DOS:  cpu time      0.3498: real time      0.0175
     RMM-DIIS:  cpu time     12.5012: real time      0.7225
    ORTHCH:  cpu time      1.1298: real time      0.0637
       DOS:  cpu time      0.1219: real time      0.0065
    CHARGE:  cpu time      1.5751: real time      0.0822
    MIXING:  cpu time      0.3251: real time      0.0182
    --------------------------------------------
      LOOP:  cpu time     19.3540: real time      1.1091

 eigenvalue-minimisations  :   144
 total energy-change (2. order) : 0.5877044E-02  (-0.1081295E-02)
 number of electron       7.9999998 magnetization       0.4444390
 augmentation part        0.1916908 magnetization       0.0255646

 Broyden mixing:
  rms(total) = 0.32188E-01    rms(broyden)= 0.32187E-01
  rms(prec ) = 0.50275E-01
  weight for this iteration     100.00

 eigenvalues of (default mixing * dielectric matrix)
  average eigenvalue GAMMA=   1.9269
  1.9269

 Free energy of the ion-electron system (eV)
  ---------------------------------------------------
  alpha Z        PSCENC =         9.12696424
  Ewald energy   TEWEN  =        64.93279079
  -Hartree energ DENC   =      -343.39300190
  -exchange      EXHF   =         0.00000000
  -V(xc)+E(xc)   XCENC  =        27.40571687
  PAW double counting   =       852.59373512     -853.94877937
  entropy T*S    EENTRO =         0.00258061
  eigenvalues    EBANDS =       -68.93811961
  atomic energy  EATOM  =       294.25444774
  Solvation  Ediel_sol  =         0.00000000
  ---------------------------------------------------
  free energy    TOTEN  =       -17.96366550 eV

  energy without entropy =      -17.96624611  energy(sigma->0) =      -17.96452570


--------------------------------------------------------------------------------------------------------




--------------------------------------- Iteration      2(   3)  ---------------------------------------


    P  RMM-DIIS:  cpu time     11.8398: real time      0.6519
    ORTHCH:  cpu time      5.3427: real time      0.3055
       DOS:  cpu time      0.0054: real time      0.  RMM-DIIS:  cpu time     15.4667: real time      0.8297
    ORTHCH:  cpu time      0.6483: real time      0.0312
       DOS:  cpu time      0.0093: real time      0.0004
    CHARGE:  cpu time      2.6247: real time      0.1416
    MIXING:  cpu time      1.4887: real time      0.0814
    --------------------------------------------
      LOOP:  cpu time     30.7794: real time      1.6454

 eigenvalue-minimisations  :   144
 total energy-change (2. order) : 0.4159237E-02  (-0.4566726E-03)
 number of electron       7.9999998 magnetization       0.4444516
 augmentation part        0.1921794 magnetization       0.0256519

 Broyden mixing:
  rms(total) = 0.80326E-02    rms(broyden)= 0.80287E-02
  rms(prec ) = 0.10550E-01
  weight for this iteration     100.00

 eigenvalues of (default mixing * dielectric matrix)
  average eigenvalue GAMMA=   1.6262
  0.6674  2.5850

 Free energy of the ion-electron system (eV)
  ---------------------------------------------------
  alpha Z        PSCENC =         9.12696424
  Ewald energy   TEWEN  =        64.93279079
  -Hartree energ DENC   =      -342.28052589
  -exchange      EXHF   =         0.00000000
  -V(xc)+E(xc)   XCENC  =        27.37507971
  PAW double counting   =       819.92314954     -821.26273007
  entropy T*S    EENTRO =         0.00258389
  eigenvalues    EBANDS =       -70.03126622
  atomic energy  EATOM  =       294.25444774
  Solvation  Ediel_sol  =         0.00000000
  ---------------------------------------------------
  free energy    TOTEN  =       -17.95950626 eV

  energy without entropy =      -17.96209015  energy(sigma->0) =      -17.96036756


---------------------------------------------------------    POTLOK:  cpu time      7.1845: real time      0.4506
    SETDIJ:  cpu time      1.2472: real time      0.0745
    EDDIAG:  cpu time      6.9097: real time      0.4077
  RMM-DIIS:  cpu time     12.2929: real time      0.7319
    ORTHCH:  cpu time      1.9613: real time      0.1096
       DOS:  cpu time      0.0058: real time  RMM-DIIS:      CHARGE:  cpu time      4.6181: real time      0.1930
    MIXING:  cpu time      0.4802: real time      0.0244
    --------------------------------------------
      LOOP:  cpu time     34.6995: real time      1.9920

 eigenvalue-minimisations  :   137
 total energy-change (2. order) :-0.2346442E-03  (-0.8933262E-05)
 number of electron       7.9999998 magnetization       0.4444611
 augmentation part        0.1921046 magnetization       0.0256709

 Broyden mixing:
  rms(total) = 0.14568E-02    rms(broyden)= 0.14562E-02
  rms(prec ) = 0.34296E-02
  weight for this iteration     100.00

 eigenvalues of (default mixing * dielectric matrix)
  average eigenvalue GAMMA=   1.5679
  2.4376  2.4376  0.7611  0.6355

 Free energy of the ion-electron system (eV)
  ---------------------------------------------------
  alpha Z        PSCENC =         9.12696424
  Ewald energy   TEWEN  =        64.93279079
  -Hartree energ DENC   =      -342.15287406
  -exchange      EXHF   =         0.00000000
  -V(xc)+E(xc)   XCENC  =        27.37432081
  PAW double counting   =       818.38911837     -819.73102282
  entropy T*S    EENTRO =         0.00258239
  eigenvalues    EBANDS =       -70.15621882
  atomic energy  EATOM  =       294.25444774
  Solvation  Ediel_sol  =         0.00000000
  ---------------------------------------------------
  free energy    TOTEN  =       -17.95989136 eV

  energy without entropy =      -17.96247375  energy(sigma->0) =      -17.96075215


--------------------------------------------------------------------------------------------------------




--------------------------------------- Iteration      2(   6)  ---------------------------------------


    POTLOK:  cpu time      3.3449: real time      0.1678
    SETDIJ:  cpu time      0.3942: real time      0.0196
    EDDIAG:  cpu time      1.8115: real time      0.0907
  RMM-DIIS:  cpu time      8.7723: real time      0.4500
    ORTHCH:  cpu time      1.2680: real time      0.0647
       DOS:  cpu time      0.0057: r  RMM-DIIS:  cpu time    CHARGE:  cpu time      1.7146: real time      0.0862
    MIXING:  cpu time      0.7927: real time      0.0417
    --------------------------------    CHARGE:  cpu time      1.3467: real time      0.0855
    MIXING:  cpu time      0.1637: real time      0.0104
    --------------------------------------------
      LOOP:  cpu time     14.8709: real time      0.9695

 eigenvalue-minimisations  :   137
 total energy-change (2. order) :-0.2346442E-03  (-0.8933262E-05)
 number of electron       7.9999998 magnetization       0.4444611
 augmentation part        0.1921046 magnetization       0.0256709

 Broyden mixing:
  rms(total) = 0.14568E-02    rms(broyden)= 0.14562E-02
  rms(prec ) = 0.34296E-02
  weight for this iteration     100.00

 eigenvalues of (default mixing * dielectric matrix)
  average eigenvalue GAMMA=   1.5679
  2.4376  2.4376  0.7611  0.6355

 Free energy of the ion-electron system (eV)
  ---------------------------------------------------
  alpha Z        PSCENC =         9.12696424
  Ewald energy   TEWEN  =        64.93279079
  -Hartree energ DENC   =      -342.15287406
  -exchange      EXHF   =         0.00000000
  -V(xc)+E(xc)   XCENC  =        27.37432081
  PAW double counting   =       818.38911837     -819.73102282
  entropy T*S    EENTRO =         0.00258239
  eigenvalues    EBANDS =       -70.15621882
  atomic energy  EATOM  =       294.25444774
  Solvation  Ediel_sol  =         0.00000000
  ---------------------------------------------------
  free energy    TOTEN  =       -17.95989136 eV

  energy without entropy =      -17.96247375  energy(sigma->0) =      -17.96075215


-------------------------------------------------------------------------    POTLOK:  cpu time      4.9693: real time      0.2544
    SETDIJ:  cpu time      1.4551: real time      0.0702
    EDDIAG:  cpu time     14.8675: real time      0.7821
  RMM-DIIS:  cpu time     10.0295: real time      0.5405
    ORTHCH:  cpu time      4.1976: real time      0.2231
       DOS:  cpu time      0.0072: real time      0.0004
    CHARGE:  cpu time      3.4724: real time      0.1847
    MIXING:  cpu time      1.7796: real time      0.0947
    --------------------------------------------
      LOOP:  cpu time     40.7782: real time      2.1499

 eigenvalue-minimisations  :   117
 total energy-change (2. order) :-0.6347725E-04  (-0.1079821E-05)
 number of electron       7.9999998 magnetization       0.4444553
 augmentation part        0.1920972 magnetization       0.0256688

 Broyden mixing:
  rms(total) = 0.52898E-03    rms(broyden)= 0.52878E-03
  rms(prec ) = 0.96398E-03
  weight for this iteration     100.00

 eigenvalues of (default mixing * dielectric matrix)
  average eigenvalue GAMMA=   1.5228
  2.6437  2.6437  1.5674  0.9436  0.7200  0.6183

 Free energy of the ion-electron system (eV)
  ---------------------------------------------------
  alpha Z        PSCENC =         9.12696424
  Ewald energy   TEWEN  =        64.93279079
  -Hartree energ DENC   =      -342.02066706
  -exchange      EXHF   =         0.00000000
  -V(xc)+E(xc)   XCENC  =        27.37157655
  PAW double counting   =       817.68596581     -819.02839546
  entropy T*S    EENTRO =         0.00258249
  eigenvalues    EBANDS =       -70.28534811
  atomic energy  EATOM  =       294.25444774
  Solvation  Ediel_sol  =         0.00000000
  ---------------------------------------------------
  free energy    TOTEN  =       -17.96008299 eV

  energy without entropy =      -17.96266548  energy(sigma->0) =      -17.96094382


--------------------------------------------------------------------------------------------------------




--------------------------------------- Iteration      2(   8)  ---------------------------------------


    POTLOK:  cpu time     11.9471: real time      0.6496
    SETDIJ:  cpu time      0.4681: real time      0.0282
    EDDIAG:  cpu time     14.5872: real time      0.8273
  RMM-DIIS:  cpu time     10.8452: real time      0.6068
    ORTHCH:  cpu time      2.5523: real time      0.1351
       DOS:  cpu time      0.2135: real time      0.0110
    CHARGE:  cpu time      2.3845: real time      0.1261
    MIXING:  cpu time      1.2640: real time      0.0576
    --------------------------------------------
      LOOP:  cpu time     44.2623: real time      2.4419

 eigenvalue-minimisations  :   116
 total energy-change (2. order) :-0.5047971E-04  (-0.6813960E-06)
 number of electron       7.9999998 magnetization       0.4444569
 augmentation part        0.1921064 magnetization       0.0256752

 Broyden mixing:
  rms(total) = 0.15240E-03    rms(broyden)= 0.15197E-03
  rms(prec ) = 0.21960E-03
  weight for this iteration     100.00

 eigenvalues of (default mixing * dielectric matrix)
  average eigenvalue GAMMA=   1.7403
  4.2920  2.5463  2.2807  0.9753  0.7858  0.6188  0.6831

 Free energy of the ion-electron system (eV)
  ---------------------------------------------------
  alpha Z        PSCENC =         9.12696424
  Ewald energy   TEWEN  =        64.93279079
  -Hartree energ DENC   =      -341.97821741
  -exchange      EXHF   =         0.00000000
  -V(xc)+E(xc)   XCENC  =        27.37031605
  PAW double counting   =       818.02842008     -819.37067332
  entropy T*S    EENTRO =         0.00258254
  eigenvalues    EBANDS =       -70.32676419
  atomic energy  EATOM  =       294.25444774
[...]
    SETDIJ:  cpu time      0.4027: real time      0.0246
    EDDIAG:  cpu time      4.2508: real time      0.2122
  RMM-DIIS:  cpu time      9.8523: real time      0.5624
    ORTHCH:  cpu time      0.9519: real time      0.0641
       DOS:  cpu time      0.0052: real time      0.0003
    CHARGE:  cpu time      2.3052: real time      0.1501
    MIXING:  cpu time      0.4490: real time      0.0235
    --------------------------------------------
      LOOP:  cpu time     27.4025: real time      1.6014

 eigenvalue-minimisations  :   126
 total energy-change (2. order) :-0.9647093E-04  (-0.3684258E-05)
 number of electron       8.0000000 magnetization       0.4444566
 augmentation part        0.1973565 magnetization       0.0259126

 Broyden mixing:
  rms(total) = 0.31661E-02    rms(broyden)= 0.31658E-02
  rms(prec ) = 0.43953E-02
  weight for this iteration     100.00

 eigenvalues of (default mixing * dielectric matrix)
  average eigenvalue GAMMA=   1.3755
  2.4285  2.4285  1.0401  1.0401  0.7047  0.6110

 Free energy of the ion-electron system (eV)
  ---------------------------------------------------
  alpha Z        PSCENC =         9.81921391
  Ewald energy   TEWEN  =        39.86390415
  -Hartree energ DENC   =      -320.16221391
  -exchange      EXHF   =         0.00000000
  -V(xc)+E(xc)   XCENC  =        27.55508483
  PAW double counting   =       849.75539779     -851.12256645
  entropy T*S    EENTRO =         0.00258179
  eigenvalues    EBANDS =       -67.94572134
  atomic energy  EATOM  =       294.25444774
  Solvation  Ediel_sol  =         0.00000000
  ---------------------------------------------------
  free energy    TOTEN  =       -17.97987148 eV

  energy without entropy =      -17.98245327  energy(sigma->0) =      -17.98073208


--------------------------------------------------------------------------------------------------------




--------------------------------------- Iteration      6(   8)  ---------------------------------------


    POTLOK:  cpu time      5.0787: real time      0.2775
    SETDIJ:  cpu time      0.8974: real time      0.0507
    EDDIAG:  cpu time      5.0857: real time      0.2880
  RMM-DIIS:  cpu time     12.0606: real time      0.7154
    ORTHCH:  cpu time      1.6807: real time      0.1136
       DOS:  cpu time      0.6343: real time      0.0440
    CHARGE:  cpu time      3.7659: real time      0.2569
    MIXING:  cpu time      2.7935: real time      0.1864
    --------------------------------------------
      LOOP:  cpu time     31.9969: real time      1.9325

 eigenvalue-minimisations  :   130
 total energy-change (2. order) :-0.2808539E-03  (-0.6616758E-05)
 number of electron       8.0000000 magnetization       0.4444558
 augmentation part        0.1973922 magnetization       0.0259141

 Broyden mixing:
  rms(total) = 0.77628E-03    rms(broyden)= 0.77581E-03
  rms(prec ) = 0.83760E-03
  weight for this iteration     100.00

 eigenvalues of (default mixing * dielectric matrix)
  average eigenvalue GAMMA=   1.6652
  3.9291  2.5349  2.0182  1.1221  0.8049  0.6044  0.6430

 Free energy of the ion-electron system (eV)
  ---------------------------------------------------
  alpha Z        PSCENC =         9.81921391
  Ewald energy   TEWEN  =        39.86390415
  -Hartree energ DENC   =      -320.03185010
  -exchange      EXHF   =         0.00000000
  -V(xc)+E(xc)   XCENC  =        27.55060951
  PAW double counting   =       851.97875525     -853.34352744
  entropy T*S    EENTRO =         0.00258159
  eigenvalues    EBANDS =       -68.07428695
  atomic energy  EATOM  =       294.25444774
  Solvation  Ediel_sol  =         0.00000000
  ---------------------------------------------------
  free energy    TOTEN  =       -17.98015233 eV

  energy without entropy =      -17.98273392  energy(sigma->0) =      -17.98101286


--------------------------------------------------------------------------------------------------------




--------------------------------------- Iteration      6(   9)  ---------------------------------------


    POTLOK:  cpu time      7.3293: real time      0.4670
    SETDIJ:  cpu time      0.6761: real time      0.0409
    EDDIAG:  cpu time      8.6322: real time      0.5138
  RMM-DIIS:  cpu time     12.0850: real time      0.7772
    ORTHCH:  cpu time      0.1932: real time      0.0110
       DOS:  cpu time      0.0066: real time      0.0004
    CHARGE:  cpu time      1.9019: real time      0.1153
    MIXING:  cpu time      0.3480: real time      0.0214
    --------------------------------------------
      LOOP:  cpu time     31.1718: real time      1.9469

 eigenvalue-minimisations  :   115
 total energy-change (2. order) :-0.1888894E-04  (-0.6192732E-06)
 number of electron       8.0000000 magnetization       0.4444558
 augmentation part        0.1974028 magnetization       0.0259204

 Broyden mixing:
  rms(total) = 0.36630E-03    rms(broyden)= 0.36596E-03
  rms(prec ) = 0.43204E-03
  weight for this iteration     100.00

 eigenvalues of (default mixing * dielectric matrix)
  average eigenvalue GAMMA=   1.5946
  4.3051  2.4295  1.9700  1.1021  0.9556  0.7247  0.6351  0.6351

 Free energy of the ion-electron system (eV)
  ---------------------------------------------------
  alpha Z        PSCENC =         9.81921391
  Ewald energy   TEWEN  =        39.86390415
  -Hartree energ DENC   =      -320.02591814
  -exchange      EXHF   =         0.00000000
  -V(xc)+E(xc)   XCENC  =        27.55039884
  PAW double counting   =       852.04387136     -853.40852453
  entropy T*S    EENTRO =         0.00258179
  eigenvalues    EBANDS =       -68.08014636
  atomic energy  EATOM  =       294.25444774
  Solvation  Ediel_sol  =         0.00000000
  ---------------------------------------------------
  free energy    TOTEN  =       -17.98017122 eV

  energy without entropy =      -17.98275301  energy(sigma->0) =      -17.98103182


--------------------------------------------------------------------------------------------------------




--------------------------------------- Iteration      6(  10)  ---------------------------------------


    POTLOK:  cpu time      3.3110: real time      0.1506
    SETDIJ:  cpu time      0.2199: real time      0.0067
    EDDIAG:  cpu time      1.2227: real time      0.0360
  RMM-DIIS:  cpu time      6.4694: real time      0.2923
    ORTHCH:  cpu time      2.5096: real time      0.0738
       DOS:  cpu time      0.0129: real time      0.0004
    --------------------------------------------
      LOOP:  cpu time     13.7454: real time      0.5597

 eigenvalue-minimisations  :    96
 total energy-change (2. order) :-0.2667898E-06  (-0.5146951E-07)
 number of electron       8.0000000 magnetization       0.4444558
 augmentation part        0.1974028 magnetization       0.0259204

 Free energy of the ion-electron system (eV)
  ---------------------------------------------------
  alpha Z        PSCENC =         9.81921391
  Ewald energy   TEWEN  =        39.86390415
  -Hartree energ DENC   =      -320.03001242
  -exchange      EXHF   =         0.00000000
  -V(xc)+E(xc)   XCENC  =        27.55058524
  PAW double counting   =       851.89647853     -853.26124484
  entropy T*S    EENTRO =         0.00258177
  eigenvalues    EBANDS =       -68.07612557
  atomic energy  EATOM  =       294.25444774
  Solvation  Ediel_sol  =         0.00000000
  ---------------------------------------------------
  free energy    TOTEN  =       -17.98017149 eV

  energy without entropy =      -17.98275326  energy(sigma->0) =      -17.98103208


--------------------------------------------------------------------------------------------------------




 average (electrostatic) potential at core
  the test charge radii are     0.6991
  (the norm of the test charge is              1.0000)
       1 -54.8605       2 -54.8605
 
 
 
 E-fermi :   0.3046     XC(G=0):  -6.4004     alpha+bet : -5.9900

 val. band max:        0.1362544954   @ k =   0.3333   0.3333   0.0000
 cond. band min:       0.9714053797   @ k =   0.3333   0.3333   0.0000
 fundamental gap:      0.8351508842
 Fermi energy:         0.3046425882

 spin component 1

 k-point     1 :       0.0000    0.0000    0.0000
  band No.  band energies     occupation 
      1     -19.0582      1.00000
      2      -7.3711      1.00000
      3      -2.5330      1.00000
      4      -2.5330      1.00000
      5       3.2309     -0.00000
      6       8.2400      0.00000
      7       8.7951      0.00000
      8       8.7951      0.00000
      9      11.3629      0.00000
     10      11.4980      0.00000
     11      12.5089      0.00000
     12      23.2397      0.00000

 k-point     2 :       0.3333    0.0000    0.0000
  band No.  band energies     occupation 
      1     -16.4789      1.00000
      2      -9.1620      1.00000
      3      -5.2595      1.00000
      4      -4.4167      1.00000
      5       5.0102      0.00000
      6       6.7489      0.00000
      7       8.0259      0.00000
      8      11.3835      0.00000
      9      14.7352      0.00000
     10      15.9134      0.00000
     11      16.6898      0.00000
     12      18.4435      0.00000

 k-point     3 :       0.3333    0.3333    0.0000
  band No.  band energies     occupation 
      1     -12.1659      1.00000
      2     -12.1659      1.00000
      3      -9.9918      1.00000
      4       0.1363      1.00001
      5       0.1363      1.00001
      6      11.1495      0.00000
      7      12.9142      0.00000
      8      12.9142      0.00000
      9      13.5087      0.00000
     10      15.9966      0.00000
     11      15.9966      0.00000
     12      17.9416      0.00000
 Fermi energy:         0.3046425882

 spin component 2

 k-point     1 :       0.0000    0.0000    0.0000
  band No.  band energies     occupation 
      1     -18.7601      1.00000
      2      -6.6732      1.00000
      3      -2.4057      1.00000
      4      -2.4057      1.00000
      5       3.3909     -0.00000
      6       8.5113      0.00000
      7       8.8983      0.00000
      8       8.8983      0.00000
      9      11.7167      0.00000
     10      12.4807      0.00000
     11      13.2651      0.00000
     12      23.5592      0.00000

 k-point     2 :       0.3333    0.0000    0.0000
  band No.  band energies     occupation 
      1     -16.1901      1.00000
      2      -8.9425      1.00000
      3      -5.1386      1.00000
      4      -3.6733      1.00000
      5       5.8766      0.00000
      6       6.9191      0.00000
      7       8.3461      0.00000
      8      11.6862      0.00000
      9      14.9565      0.00000
     10      16.2254      0.00000
     11      16.8103      0.00000
     12      18.7741      0.00000

 k-point     3 :       0.3333    0.3333    0.0000
  band No.  band energies     occupation 
      1     -11.8693      1.00000
      2     -11.8693      1.00000
      3      -9.8984      1.00000
      4       0.9714     -0.00001
      5       0.9714     -0.00001
      6      11.3607      0.00000
      7      13.2049      0.00000
      8      13.2049      0.00000
      9      13.5959      0.00000
     10      16.2612      0.00000
     11      16.2612      0.00000
     12      17.9742      0.00000


--------------------------------------------------------------------------------------------------------


 soft charge-density along one line, spin component           1
         0         1         2         3         4         5         6         7         8         9
 total charge-density along one line
 
 soft charge-density along one line, spin component           2
         0         1         2         3         4         5         6         7         8         9
 total charge-density along one line
 
 pseudopotential strength for first ion, spin component:           1
 10.036  13.342   0.000   0.000   0.000  -0.000  -0.000  -0.000
 13.342  17.737   0.000   0.000   0.000  -0.000  -0.000  -0.000
  0.000   0.000  -4.169   0.000   0.000   8.152  -0.000  -0.000
  0.000   0.000   0.000  -4.184   0.000  -0.000   8.181  -0.000
  0.000   0.000   0.000   0.000  -4.169  -0.000  -0.000   8.152
 -0.000  -0.000   8.152  -0.000  -0.000 -18.066   0.000   0.000
 -0.000  -0.000  -0.000   8.181  -0.000   0.000 -18.127   0.000
 -0.000  -0.000  -0.000  -0.000   8.152   0.000   0.000 -18.066
 pseudopotential strength for first ion, spin component:           2
  9.994  13.284   0.000  -0.000   0.000  -0.000   0.000  -0.000
 13.284  17.658   0.000  -0.000   0.000  -0.000   0.000  -0.000
  0.000   0.000  -4.171   0.000   0.000   8.163  -0.000  -0.000
 -0.000  -0.000   0.000  -4.140   0.000  -0.000   8.113  -0.000
  0.000   0.000   0.000   0.000  -4.171  -0.000  -0.000   8.163
 -0.000  -0.000   8.163  -0.000  -0.000 -18.105   0.000   0.000
  0.000   0.000  -0.000   8.113  -0.000   0.000 -18.024   0.000
 -0.000  -0.000  -0.000  -0.000   8.163   0.000   0.000 -18.105
 total augmentation occupancy for first ion, spin component:           1
  8.234  -3.671   0.000   0.000  -0.000  -0.000   0.000  -0.000
 -3.671   1.679  -0.000   0.000   0.000   0.000   0.000   0.000
  0.000  -0.000   1.835   0.000   0.000   0.170  -0.000   0.000
  0.000   0.000   0.000   1.191   0.000   0.000   0.071   0.000
 -0.000   0.000   0.000   0.000   1.835   0.000   0.000   0.170
 -0.000   0.000   0.170   0.000   0.000   0.017   0.000  -0.000
  0.000   0.000  -0.000   0.071   0.000   0.000   0.005   0.000
 -0.000   0.000   0.000   0.000   0.170   0.000   0.000   0.017
 total augmentation occupancy for first ion, spin component:           2
  0.034  -0.015   0.000   0.000  -0.000   0.000   0.000   0.000
 -0.015   0.007  -0.000   0.000   0.000  -0.000   0.000  -0.000
  0.000  -0.000  -0.003   0.000   0.000   0.001  -0.000   0.000
  0.000   0.000   0.000   0.273   0.000  -0.000   0.003   0.000
 -0.000   0.000  -0.000   0.000  -0.003   0.000   0.000   0.001
  0.000  -0.000   0.001  -0.000   0.000   0.000  -0.000   0.000
  0.000   0.000  -0.000   0.003   0.000  -0.000  -0.000   0.000
  0.000  -0.000   0.000   0.000   0.001   0.000   0.000   0.000


------------------------ aborting loop because EDIFF is reached ----------------------------------------


    CHARGE:  cpu time      0.7220: real time      0.0206
    FORLOC:  cpu time      0.0258: real time      0.0007
    FORNL :  cpu time      0.3181: real time      0.0091
    STRESS:  cpu time      1.9886: real time      0.0568
    FORCOR:  cpu time      1.1069: real time      0.0316
    FORHAR:  cpu time      0.2756: real time      0.0079
    MIXING:  cpu time      0.1078: real time      0.0031
    OFIELD:  cpu time      0.0015: real time      0.0000

  FORCE on cell =-STRESS in cart. coord.  units (eV):
  Direction    XX          YY          ZZ          XY          YZ          ZX
  --------------------------------------------------------------------------------------
  Alpha Z     9.81921     9.81921     9.81921
  Ewald     308.04345   308.04345  -576.22325    -0.00000     0.00000     0.00000
  Hartree   308.53896   308.53896  -297.04346     0.00000     0.00000    -0.00000
  E(xc)     -29.73513   -29.73513   -30.85468     0.00000    -0.00000    -0.00000
  Local    -709.10303  -709.10297   764.55165     0.00000     0.00000    -0.00000
  n-local    -7.79156    -7.75317    -7.07856     0.03325     0.00000    -0.00000
  augment    -0.79431    -0.79436    -0.74637    -0.00000    -0.00000    -0.00000
  Kinetic   120.04363   121.94909   137.57186     1.65018    -0.00000     0.00000
  Fock        0.00000     0.00000     0.00000     0.00000     0.00000     0.00000
  -------------------------------------------------------------------------------------
  Total      -0.00685    -0.00685    -0.00359     0.00000     0.00000    -0.00000
  in kB      -0.32789    -0.32789    -0.17176     0.00000     0.00000    -0.00000
  external pressure =       -0.28 kB  Pullay stress =        0.00 kB


 VOLUME and BASIS-vectors are now :
 -----------------------------------------------------------------------------
  energy-cutoff  :      400.00
  volume of cell :       33.46
      direct lattice vectors                 reciprocal lattice vectors
     1.236186615 -2.141138024 -0.000000000     0.404469676 -0.233520677 -0.000000000
     1.236186615  2.141138024  0.000000000     0.404469676  0.233520677 -0.000000000
     0.000000000  0.000000000  6.321421945    -0.000000000 -0.000000000  0.158192256

  length of vectors
     2.472373229  2.472373229  6.321421945     0.467041353  0.467041353  0.158192256


 FORCES acting on ions
    electron-ion (+dipol)            ewald-force     4ORBIT:  cpu time      0.0000: real time      0.0000

 total amount of memory used by VASP MPI-rank0    34022. kBytes
=======================================================================

   base                                    :      30000. kBytes
   nonl-proj                               :        144. kBytes
   fftplans                                :        887. kBytes
   grid                                    :       2789. kBytes
   one-center                              :         12. kBytes
   wavefun                                 :        190. kBytes
 
  
  
 General timing and accounting informations for this job:
 ========================================================
  
                  Total CPU time used (sec):     3177.442
                            User time (sec):     2683.342
                          System time (sec):      494.100
                         Elapsed time (sec):      239.959
  
                   Maximum memory used (kb):      162992.
                   Average memory used (kb):          N/A
  
                          Minor page faults:        32371
                          Major page faults:            1
                 Voluntary context switches:         6212
                                                                                                                                                                                                                                                                                                                                                                                                                                                                                                                                                                                                                                                                                                                                                                                                                                                                                                                               LOOP+:  cpu time    347.0792: real time     20.2957
    4ORBIT:  cpu time      0.0000: real time      0.0000

 total amount of memory used by VASP MPI-rank0    34022. kBytes
=======================================================================

   base                                    :      30000. kBytes
   nonl-proj                               :        144. kBytes
   fftplans                                :        887. kBytes
   grid                                    :       2789. kBytes
   one-center                              :         12. kBytes
   wavefun                                 :        190. kBytes
 
  
  
 General timing and accounting informations for this job:
 ========================================================
  
                  Total CPU time used (sec):     3390.050
                            User time (sec):     2874.250
                          System time (sec):      515.800
                         Elapsed time (sec):      240.591
  
                   Maximum memory used (kb):      159840.
                   Average memory used (kb):          N/A
  
                          Minor page faults:        34534
                          Major page faults:            0
                 Voluntary context switches:         5591
