Program started at 
 running    4 mpi-ranks, with   40 threads/rank, on    1 nodes
 distrk:  each k-point on    4 cores,    1 groups
 distr:  one band on    1 cores,    4 groups
 vasp.6.5.0 16Dec24 (build Mar 16 2025 21:55:21) complex                        
  
 POSCAR found type information on POSCAR C 
 POSCAR found :  1 types and       2 ions
 scaLAPACK will be used
 LDA part: xc-table for (Slater+PW92), standard interpolation
 POSCAR, INCAR and KPOINTS ok, starting setup
 FFT: planning ... GRIDC
 FFT: planning ... GRID_SOFT
 FFT: planning ... GRID
 WAVECAR not read
 WARNING: random wavefunctions but no delay for mixing, default for NELMDL
 entering main loop
       N       E                     dE             d eps       ncg     rms          rms(c)
DAV:   1     0.180002595929E+02    0.18000E+02   -0.31644E+03   144   0.414E+02
DAV:   2    -0.163600979816E+02   -0.34360E+02   -0.31498E+02   192   0.122E+02
DAV:   3    -0.187115012464E+02   -0.23514E+01   -0.23092E+01   192   0.236E+01
DAV:   4    -0.187332304187E+02   -0.21729E-01   -0.21728E-01   176   0.242E+00
DAV:   5    -0.187333457043E+02   -0.11529E-03   -0.11529E-03   172   0.201E-01    0.845E+00
RMM:   6    -0.179930326170E+02    0.74031E+00   -0.70648E-01   144   0.496E+00    0.413E+00
RMM:   7    -0.179423459003E+02    0.50687E-01   -0.56062E-01   145   0.453E+00    0.193E+00
RMM:   8    -0.179471393677E+02   -0.47935E-02   -0.15234E-01   144   0.262E+00    0.899E-01
RMM:   9    -0.179659145415E+02   -0.18775E-01   -0.23561E-02   145   0.993E-01    0.504E-01
RMM:  10    -0.179657353285E+02    0.17921E-03   -0.36074E-03   144   0.411E-01    0.165E-01
RMM:  11    -0.179683373241E+02   -0.26020E-02   -0.20255E-03   144   0.317E-01    0.716E-02
RMM:  12    -0.179697162644E+02   -0.13789E-02   -0.46668E-04   144   0.142E-01    0.507E-02
RMM:  13    -0.179703460977E+02   -0.62983E-03   -0.24919E-04   142   0.999E-02    0.188E-02
RMM:  14    -0.179704570799E+02   -0.11098E-03   -0.74693E-05   129   0.511E-02    0.549E-03
RMM:  15    -0.179704744488E+02   -0.17369E-04   -0.11595E-05   117   0.171E-02    0.263E-03
RMM:  16    -0.179704774836E+02   -0.30349E-05   -0.15469E-06   107   0.713E-03
   1 F= -.17970477E+02 E0= -.17971338E+02  d E =-.179705E+02  mag=     0.4445
 curvature:   0.00 expect dE= 0.000E+00 dE for cont linesearch  0.000E+00
 trial: gam= 0.00000 g(F)=  0.139E-44 g(S)=  0.188E-01 ort = 0.000E+00 (trialstep = 0.100E+01)
 search vector abs. value=  0.188E-01
 bond charge predicted
       N       E                     dE             d eps       ncg     rms          rms(c)
DAV:   1    -0.179695425434E+02    0.93191E-03   -0.67605E-01   168   0.554E+00    0.498E-01
RMM:   2    -0.179636654993E+02    0.58770E-02   -0.10813E-02   144   0.649E-01    0.322E-01
RMM:   3    -0.179595062621E+02    0.41592E-02   -0.45667E-03   144   0.433E-01    0.803E-02
RMM:   4    -0.179596567121E+02   -0.15045E-03   -0.44761E-04   144   0.164E-01    0.373E-02
RMM:   5    -0.179598913563E+02   -0.23464E-03   -0.89333E-05   137   0.688E-02    0.146E-02
RMM:   6    -0.179600195152E+02   -0.12816E-03   -0.34523E-05   133   0.442E-02    0.749E-03
RMM:   7    -0.179600829924E+02   -0.63477E-04   -0.10798E-05   117   0.202E-02    0.529E-03
RMM:   8    -0.179601334721E+02   -0.50480E-04   -0.68140E-06   116   0.131E-02    0.152E-03
RMM:   9    -0.179601371929E+02   -0.37208E-05   -0.50695E-07    88   0.476E-03
   2 F= -.17960137E+02 E0= -.17960998E+02  d E =0.103403E-01  mag=     0.4445
 trial-energy change:    0.010340  1 .order    0.010118   -0.018819    0.039054
 step:   0.3202(harm=  0.3252)  dis= 0.00000  next Energy=   -17.973483 (dE=-0.301E-02)
 bond charge predicted
       N       E                     dE             d eps       ncg     rms          rms(c)
DAV:   1    -0.179779524292E+02   -0.17819E-01   -0.31657E-01   152   0.380E+00    0.344E-01
RMM:   2    -0.179751885526E+02    0.27639E-02   -0.40559E-03   144   0.433E-01    0.219E-01
RMM:   3    -0.179733700683E+02    0.18185E-02   -0.21844E-03   144   0.299E-01    0.369E-02
RMM:   4    -0.179733702997E+02   -0.23137E-06   -0.21183E-04   144   0.115E-01    0.212E-02
RMM:   5    -0.179733806188E+02   -0.10319E-04   -0.40011E-05   137   0.507E-02    0.778E-03
RMM:   6    -0.179734045769E+02   -0.23958E-04   -0.10274E-05   116   0.283E-02    0.560E-03
RMM:   7    -0.179734213159E+02   -0.16739E-04   -0.36313E-06   108   0.142E-02    0.314E-03
RMM:   8    -0.179734384971E+02   -0.17181E-04   -0.19571E-06   108   0.760E-03    0.121E-03
RMM:   9    -0.179734390840E+02   -0.58683E-06   -0.15498E-07    82   0.304E-03
   3 F= -.17973439E+02 E0= -.17974300E+02  d E =-.296160E-02  mag=     0.4445
 curvature:  -0.16 expect dE=-0.261E-03 dE for cont linesearch -0.275E-06
 trial: gam= 0.09468 g(F)=  0.853E-45 g(S)=  0.160E-02 ort =-0.178E-03 (trialstep = 0.864E+00)
 search vector abs. value=  0.174E-02
 bond charge predicted
       N       E                     dE             d eps       ncg     rms          rms(c)
DAV:   1    -0.179770770830E+02   -0.36386E-02   -0.80050E-02   160   0.165E+00    0.188E-01
RMM:   2    -0.179754171745E+02    0.16599E-02   -0.13857E-03   144   0.257E-01    0.102E-01
RMM:   3    -0.179745151103E+02    0.90206E-03   -0.12412E-03   144   0.197E-01    0.247E-02
RMM:   4    -0.179745862802E+02   -0.71170E-04   -0.88342E-05   144   0.693E-02    0.209E-02
RMM:   5    -0.179746522169E+02   -0.65937E-04   -0.18979E-05   122   0.315E-02    0.675E-03
RMM:   6    -0.179746969182E+02   -0.44701E-04   -0.84268E-06   116   0.203E-02    0.803E-03
RMM:   7    -0.179747057381E+02   -0.88199E-05   -0.95912E-07    99   0.577E-03
   4 F= -.17974706E+02 E0= -.17975566E+02  d E =-.126665E-02  mag=     0.4445
 ZBRENT: can't locate minimum, use default step
 trial-energy change:   -0.001267  1 .order   -0.001315   -0.001371   -0.001258
 step:   3.4561(harm= 10.5224)  dis= 0.00000  next Energy=   -17.981787 (dE=-0.835E-02)
 bond charge predicted
       N       E                     dE             d eps       ncg     rms          rms(c)
DAV:   1    -0.179993135058E+02   -0.24617E-01   -0.73970E-01   164   0.505E+00    0.581E-01
RMM:   2    -0.179840913262E+02    0.15222E-01   -0.12314E-02   144   0.770E-01    0.310E-01
RMM:   3    -0.179765544413E+02    0.75369E-02   -0.11292E-02   144   0.593E-01    0.796E-02
RMM:   4    -0.179769335774E+02   -0.37914E-03   -0.80576E-04   144   0.212E-01    0.719E-02
RMM:   5    -0.179773667142E+02   -0.43314E-03   -0.17497E-04   144   0.874E-02    0.227E-02
RMM:   6    -0.179775810726E+02   -0.21436E-03   -0.74648E-05   140   0.571E-02    0.246E-02
RMM:   7    -0.179776121263E+02   -0.31054E-04   -0.99351E-06   116   0.187E-02    0.151E-02
RMM:   8    -0.179777255578E+02   -0.11343E-03   -0.20791E-05   120   0.221E-02    0.403E-03
RMM:   9    -0.179777349420E+02   -0.93842E-05   -0.19547E-06   110   0.855E-03
   5 F= -.17977735E+02 E0= -.17978596E+02  d E =-.429586E-02  mag=     0.4445
 curvature:  -2.68 expect dE=-0.139E-02 dE for cont linesearch -0.123E-02
 ZBRENT: increasing intervall
 opt :   8.6403  next Energy=   -17.979458 (dE=-0.602E-02)
 bond charge predicted
       N       E                     dE             d eps       ncg     rms          rms(c)
DAV:   1    -0.180692396497E+02   -0.91514E-01   -0.31219E+00   160   0.105E+01    0.119E+00
RMM:   2    -0.180069595900E+02    0.62280E-01   -0.56065E-02   144   0.161E+00    0.637E-01
RMM:   3    -0.179766496043E+02    0.30310E-01   -0.45353E-02   144   0.119E+00    0.167E-01
RMM:   4    -0.179784280273E+02   -0.17784E-02   -0.32130E-03   144   0.423E-01    0.144E-01
RMM:   5    -0.179791380271E+02   -0.71000E-03   -0.48169E-04   144   0.152E-01    0.514E-02
RMM:   6    -0.179797750070E+02   -0.63698E-03   -0.31249E-04   144   0.120E-01    0.497E-02
RMM:   7    -0.179798714779E+02   -0.96471E-04   -0.36843E-05   126   0.378E-02    0.317E-02
RMM:   8    -0.179801523318E+02   -0.28085E-03   -0.66168E-05   130   0.402E-02    0.776E-03
RMM:   9    -0.179801712208E+02   -0.18889E-04   -0.61927E-06   115   0.159E-02    0.366E-03
RMM:  10    -0.179801714876E+02   -0.26679E-06   -0.51470E-07    96   0.526E-03
   6 F= -.17980171E+02 E0= -.17981032E+02  d E =-.673240E-02  mag=     0.4445
 curvature:  -3.74 expect dE=-0.964E-05 dE for cont linesearch -0.118E-05
 trial: gam=-0.02338 g(F)=  0.660E-45 g(S)=  0.257E-05 ort = 0.234E-04 (trialstep = 0.242E+01)
 search vector abs. value=  0.243E-05
 reached required accuracy - stopping structural energy minimisation
