unknown system                          
           1
     1.230600   -2.131462    0.000000
     1.230600    2.131462    0.000000
     0.000000    0.000000    6.709000
   C 
     2
Direct configuration=     1
   0.33333333  0.16666667  0.50000000
   0.66666667  0.83333333  0.50000000
unknown system                          
           1
     1.248385   -2.162266    0.000000
     1.248385    2.162266    0.000000
     0.000000    0.000000    6.668627
   C 
     2
Direct configuration=     2
   0.33333333  0.16666667  0.50000000
   0.66666667  0.83333333  0.50000000
unknown system                          
           1
     1.236294   -2.141324    0.000000
     1.236294    2.141324    0.000000
     0.000000    0.000000    6.696074
   C 
     2
Direct configuration=     3
   0.33333333  0.16666667  0.50000000
   0.66666667  0.83333333  0.50000000
unknown system                          
           1
     1.236283   -2.141305   -0.000000
     1.236283    2.141305    0.000000
     0.000000    0.000000    6.658609
   C 
     2
Direct configuration=     4
   0.33333333  0.16666667  0.50000000
   0.66666667  0.83333333  0.50000000
unknown system                          
           1
     1.236251   -2.141249   -0.000000
     1.236251    2.141249    0.000000
     0.000000    0.000000    6.546213
   C 
     2
Direct configuration=     5
   0.33333333  0.16666667  0.50000000
   0.66666667  0.83333333  0.50000000
unknown system                          
           1
     1.236187   -2.141138   -0.000000
     1.236187    2.141138    0.000000
     0.000000    0.000000    6.321422
   C 
     2
Direct configuration=     6
   0.33333333  0.16666667  0.50000000
   0.66666667  0.83333333  0.50000000
