       N       E                     dE             d eps       ncg     rms          rms(c)
DAV:   1     0.344372750805E+04    0.34437E+04   -0.89574E+04   592   0.928E+02
DAV:   2     0.978679304376E+03   -0.24650E+04   -0.23281E+04   880   0.142E+02
DAV:   3    -0.185525040125E+03   -0.11642E+04   -0.11369E+04   656   0.982E+01
DAV:   4    -0.357055042723E+03   -0.17153E+03   -0.16786E+03   584   0.449E+01
DAV:   5    -0.366723803118E+03   -0.96688E+01   -0.90765E+01   720   0.931E+00    0.915E+01
DAV:   6    -0.361008654727E+03    0.57151E+01   -0.37024E+02   728   0.231E+01    0.478E+01
DAV:   7    -0.377513538172E+03   -0.16505E+02   -0.71050E+02   848   0.491E+01    0.389E+01
DAV:   8    -0.347978631153E+03    0.29535E+02   -0.10170E+02   648   0.142E+01    0.252E+01
DAV:   9    -0.333815430355E+03    0.14163E+02   -0.34008E+01   736   0.871E+00    0.157E+01
DAV:  10    -0.328934291112E+03    0.48811E+01   -0.17108E+01   768   0.526E+00    0.934E+00
DAV:  11    -0.327879130518E+03    0.10552E+01   -0.80950E+00   760   0.350E+00    0.672E+00
DAV:  12    -0.327413750312E+03    0.46538E+00   -0.18271E+00   688   0.199E+00    0.549E+00
DAV:  13    -0.327081502399E+03    0.33225E+00   -0.66115E-01   720   0.112E+00    0.414E+00
DAV:  14    -0.326911546132E+03    0.16996E+00   -0.77727E-01   728   0.111E+00    0.280E+00
DAV:  15    -0.326891708100E+03    0.19838E-01   -0.22945E+00   800   0.128E+00    0.258E+00
DAV:  16    -0.326821448274E+03    0.70260E-01   -0.13496E+00   760   0.111E+00    0.208E+00
DAV:  17    -0.326780691340E+03    0.40757E-01   -0.26356E-01   784   0.690E-01    0.112E+00
DAV:  18    -0.326767092634E+03    0.13599E-01   -0.10476E-01   824   0.447E-01    0.826E-01
DAV:  19    -0.326762301766E+03    0.47909E-02   -0.60876E-02   728   0.275E-01    0.689E-01
DAV:  20    -0.326760132578E+03    0.21692E-02   -0.42095E-02   792   0.249E-01    0.544E-01
DAV:  21    -0.326754026892E+03    0.61057E-02   -0.29418E-02   808   0.228E-01    0.360E-01
DAV:  22    -0.326752144900E+03    0.18820E-02   -0.10109E-02   768   0.136E-01    0.183E-01
DAV:  23    -0.326751229453E+03    0.91545E-03   -0.65712E-03   816   0.940E-02    0.199E-01
DAV:  24    -0.326750361360E+03    0.86809E-03   -0.37493E-03   808   0.810E-02    0.127E-01
DAV:  25    -0.326749787938E+03    0.57342E-03   -0.19925E-03   776   0.587E-02    0.115E-01
DAV:  26    -0.326749435971E+03    0.35197E-03   -0.13240E-03   672   0.576E-02    0.102E-01
DAV:  27    -0.326749297529E+03    0.13844E-03   -0.45198E-04   624   0.373E-02    0.387E-02
DAV:  28    -0.326749563399E+03   -0.26587E-03   -0.45266E-04   528   0.371E-02    0.499E-02
DAV:  29    -0.326749915186E+03   -0.35179E-03   -0.43826E-04   504   0.327E-02    0.410E-02
DAV:  30    -0.326750239301E+03   -0.32412E-03   -0.43503E-04   528   0.304E-02    0.556E-02
DAV:  31    -0.326750730346E+03   -0.49105E-03   -0.30958E-04   560   0.282E-02    0.179E-02
DAV:  32    -0.326751274138E+03   -0.54379E-03   -0.18885E-04   504   0.224E-02    0.110E-02
DAV:  33    -0.326751538798E+03   -0.26466E-03   -0.41162E-05   464   0.109E-02    0.113E-02
DAV:  34    -0.326751779978E+03   -0.24118E-03   -0.10963E-05   384   0.677E-03    0.117E-02
DAV:  35    -0.326752092884E+03   -0.31291E-03   -0.17311E-05   424   0.731E-03    0.372E-03
DAV:  36    -0.326752355619E+03   -0.26274E-03   -0.13087E-05   416   0.553E-03    0.700E-03
DAV:  37    -0.326752463563E+03   -0.10794E-03    0.83516E-07   376   0.279E-03    0.561E-03
