 vasp.6.5.0 16Dec24 (build Mar 16 2025 21:55:21) complex                        
  
 executed on             LinuxIFC date 2025.12.08  15:02:11
 running    8 mpi-ranks, with    1 threads/rank, on    1 nodes
 distrk:  each k-point on    8 cores,    1 groups
 distr:  one band on NCORE=   1 cores,    8 groups


--------------------------------------------------------------------------------------------------------


 INCAR:
   SYSTEM = WSe2_QD_relax_optB86b-vdW
   ISTART = 0
   ICHARG = 2
   ENCUT = 500
   PREC = Accurate
   EDIFF = 1E-5
   NELM = 120
   NELMIN = 4
   ALGO = Normal
   LREAL = Auto
   LASPH = .TRUE.
   LMAXMIX = 4
   ADDGRID = .TRUE.
   ISYM = 0
   ISMEAR = 0
   SIGMA = 0.1
   ISPIN = 1
   NSW = 150
   IBRION = 2
   ISIF = 2
   POTIM = 0.5
   EDIFFG = -0.02
   GGA = MK
   LUSE_VDW = .TRUE.
   PARAM1 = 0.1234
   PARAM2 = 1.0
   AGGAC = 0.0
   IVDW = 0
   LWAVE = .FALSE.
   LCHARG = .FALSE.

 POTCAR:    PAW_PBE W 08Apr2002                   
 POTCAR:    PAW_PBE Se 06Sep2000                  
 -----------------------------------------------------------------------------
|                                                                             |
|               ----> ADVICE to this user running VASP <----                  |
|                                                                             |
|     You have switched on vdW-DFT.                                           |
|     This routine was written and supplied by Jiri Klimes. We recommend      |
|     that you carefully read and cite the following publications:            |
|       J. Klimes, D.R. Bowler, A. Michelides                                 |
|          J. Phys.: Cond Matt. 22 022201 (2010)                              |
|       J. Klimes, D.R. Bowler, A. Michelides                                 |
|          Phys. Rev. B. 83, 195131 (2011)                                    |
|     and references therein.                                                 |
|                                                                             |
 -----------------------------------------------------------------------------

 POTCAR:    PAW_PBE W 08Apr2002                   
   SHA256 =  c0897285f1b301314dcc12eb838ce8a777aa860795754598b0626cb818170117 W/POTCAR              
   COPYR  = (c) Copyright 08Apr2002 Georg Kresse                                                    
   COPYR  = This file is part of the software VASP. Any use, copying, and all other rights are regul
   COPYR  = If you do not have a valid VASP license, you may not use, copy or distribute this file. 
   VRHFIN =W : 6s5d                                                                                 
   LEXCH  = PE                                                                                      
   EATOM  =   204.6103 eV,   15.0384 Ry                                                             
                                                                                                    
   TITEL  = PAW_PBE W 08Apr2002                                                                     
   LULTRA =        F    use ultrasoft PP ?                                                          
   IUNSCR =        1    unscreen: 0-lin 1-nonlin 2-no                                               
   RPACOR =    2.330    partial core radius                                                         
   POMASS =  183.850; ZVAL   =    6.000    mass and valenz                                          
   RCORE  =    2.750    outmost cutoff radius                                                       
   RWIGS  =    2.750; RWIGS  =    1.455    wigner-seitz radius (au A)                               
   ENMAX  =  223.057; ENMIN  =  167.293 eV                                                          
   RCLOC  =    2.147    cutoff for local pot                                                        
   LCOR   =        T    correct aug charges                                                         
   LPAW   =        T    paw PP                                                                      
   EAUG   =  373.438                                                                                
   DEXC   =    0.000                                                                                
   RMAX   =    2.801    core radius for proj-oper                                                   
   RAUG   =    1.300    factor for augmentation sphere                                              
   RDEP   =    2.886    radius for radial grids                                                     
   RDEPT  =    2.230    core radius for aug-charge                                                  
                                                                                                    
   Atomic configuration                                                                             
   16 entries                                                                                       
     n  l   j            E        occ.                                                              
     1  0  0.50    -69465.5836   2.0000                                                             
     2  0  0.50    -11986.2642   2.0000                                                             
     2  1  1.50    -10479.8616   6.0000                                                             
     3  0  0.50     -2759.0758   2.0000                                                             
     3  1  1.50     -2313.1857   6.0000                                                             
     3  2  2.50     -1801.1185  10.0000                                                             
     4  0  0.50      -567.6791   2.0000                                                             
     4  1  1.50      -421.4694   6.0000                                                             
     4  2  2.50      -236.3473  10.0000                                                             
     4  3  3.50       -31.2666  14.0000                                                             
     5  0  0.50       -77.1085   2.0000                                                             
     5  1  1.50       -41.3856   6.0000                                                             
     5  2  2.50        -3.3185   5.0000                                                             
     6  0  0.50        -5.1438   1.0000                                                             
     6  1  0.50        -3.8096   0.0000                                                             
     5  3  2.50        -1.3606   0.0000                                                             
   Description                                                                                      
     l       E           TYP  RCUT    TYP  RCUT                                                     
     2     -3.3185288     23  2.500                                                                 
     2     -1.5965414     23  2.500                                                                 
     0     -5.1438054     23  2.500                                                                 
     0      4.9117504     23  2.500                                                                 
     1      2.7211652     23  2.750                                                                 
     1     27.2116520     23  2.750                                                                 
  local pseudopotential read in
  partial core-charges read in
  partial kinetic energy density read in
  atomic valenz-charges read in
  non local Contribution for L=           2  read in
    real space projection operators read in
  non local Contribution for L=           2  read in
    real space projection operators read in
  non local Contribution for L=           0  read in
    real space projection operators read in
  non local Contribution for L=           0  read in
    real space projection operators read in
  non local Contribution for L=           1  read in
    real space projection operators read in
  non local Contribution for L=           1  read in
    real space projection operators read in
    PAW grid and wavefunctions read in
 
   number of l-projection  operators is LMAX  =           6
   number of lm-projection operators is LMMAX =          18
 
 POTCAR:    PAW_PBE Se 06Sep2000                  
   SHA256 =  eabb916e6b4c819dc065ce039373bc328651da483898f08fb9e49c498452bf12 Se/POTCAR             
   COPYR  = (c) Copyright 06Sep2000 Georg Kresse                                                    
   COPYR  = This file is part of the software VASP. Any use, copying, and all other rights are regul
   COPYR  = If you do not have a valid VASP license, you may not use, copy or distribute this file. 
   VRHFIN =Se: s2p4                                                                                 
   LEXCH  = PE                                                                                      
   EATOM  =   257.1286 eV,   18.8984 Ry                                                             
                                                                                                    
   TITEL  = PAW_PBE Se 06Sep2000                                                                    
   LULTRA =        F    use ultrasoft PP ?                                                          
   IUNSCR =        1    unscreen: 0-lin 1-nonlin 2-no                                               
   RPACOR =    1.900    partial core radius                                                         
   POMASS =   78.960; ZVAL   =    6.000    mass and valenz                                          
   RCORE  =    2.100    outmost cutoff radius                                                       
   RWIGS  =    2.200; RWIGS  =    1.164    wigner-seitz radius (au A)                               
   ENMAX  =  211.555; ENMIN  =  158.666 eV                                                          
   ICORE  =        3    local potential                                                             
   LCOR   =        T    correct aug charges                                                         
   LPAW   =        T    paw PP                                                                      
   EAUG   =  446.842                                                                                
   DEXC   =    0.000                                                                                
   RMAX   =    2.147    core radius for proj-oper                                                   
   RAUG   =    1.300    factor for augmentation sphere                                              
   RDEP   =    2.177    radius for radial grids                                                     
   RDEPT  =    1.928    core radius for aug-charge                                                  
                                                                                                    
   Atomic configuration                                                                             
   10 entries                                                                                       
     n  l   j            E        occ.                                                              
     1  0  0.50    -12503.4787   2.0000                                                             
     2  0  0.50     -1606.9547   2.0000                                                             
     2  1  1.50     -1413.3140   6.0000                                                             
     3  0  0.50      -213.4885   2.0000                                                             
     3  1  1.50      -152.9538   6.0000                                                             
     3  2  2.50       -53.1221  10.0000                                                             
     4  0  0.50       -17.2865   2.0000                                                             
     4  1  0.50        -6.5110   4.0000                                                             
     4  2  2.50        -6.8029   0.0000                                                             
     4  3  2.50        -6.8029   0.0000                                                             
   Description                                                                                      
     l       E           TYP  RCUT    TYP  RCUT                                                     
     0    -17.2865377     23  2.100                                                                 
     0    -15.3094411     23  2.100                                                                 
     1     -6.5110275     23  2.100                                                                 
     1     -0.0695192     23  2.100                                                                 
     2     -6.8029130     23  2.100                                                                 
     3     -1.3605826      7  2.100                                                                 
  local pseudopotential read in
  partial core-charges read in
  partial kinetic energy density read in
  atomic valenz-charges read in
  non local Contribution for L=           0  read in
    real space projection operators read in
  non local Contribution for L=           0  read in
    real space projection operators read in
  non local Contribution for L=           1  read in
    real space projection operators read in
  non local Contribution for L=           1  read in
    real space projection operators read in
  non local Contribution for L=           2  read in
    real space projection operators read in
    PAW grid and wavefunctions read in
 
   number of l-projection  operators is LMAX  =           5
   number of lm-projection operators is LMMAX =          13
 
 Optimization of the real space projectors (new method)

 maximal supplied QI-value         = 13.61
 optimisation between [QCUT,QGAM] = [ 11.43, 22.86] = [ 36.58,146.31] Ry 
 Optimized for a Real-space Cutoff    1.56 Angstroem

   l    n(q)    QCUT    max X(q) W(low)/X(q) W(high)/X(q)  e(spline) 
   2     10    11.429   130.855    0.22E-03    0.64E-03    0.11E-05
   2     10    11.429   114.007    0.22E-03    0.64E-03    0.11E-05
   0     11    11.429    84.709    0.39E-04    0.67E-04    0.23E-06
   0     11    11.429    49.163    0.35E-04    0.62E-04    0.21E-06
   1     10    11.429    15.765    0.84E-04    0.15E-03    0.24E-06
   1     10    11.429    10.638    0.58E-04    0.12E-03    0.19E-06
 Optimization of the real space projectors (new method)

 maximal supplied QI-value         = 17.95
 optimisation between [QCUT,QGAM] = [ 11.31, 22.80] = [ 35.82,145.56] Ry 
 Optimized for a Real-space Cutoff    1.31 Angstroem

   l    n(q)    QCUT    max X(q) W(low)/X(q) W(high)/X(q)  e(spline) 
   0      9    11.310   133.320    0.43E-04    0.56E-04    0.72E-07
   0      9    11.310   111.601    0.44E-04    0.58E-04    0.76E-07
   1      8    11.310    47.222    0.10E-03    0.14E-03    0.94E-07
   1      8    11.310    33.775    0.10E-03    0.14E-03    0.92E-07
   2      8    11.310     3.720    0.37E-04    0.63E-04    0.65E-07
 -----------------------------------------------------------------------------
|                                                                             |
|               ----> ADVICE to this user running VASP <----                  |
|                                                                             |
|     You enforced a specific xc type in the INCAR file but a different       |
|     type was found in the POTCAR file.                                      |
|     I HOPE YOU KNOW WHAT YOU ARE DOING!                                     |
|                                                                             |
 -----------------------------------------------------------------------------

  PAW_PBE W 08Apr2002                   :
 energy of atom  1       EATOM= -204.6103
 kinetic energy error for atom=    0.0017 (will be added to EATOM!!)
  PAW_PBE Se 06Sep2000                  :
 energy of atom  2       EATOM= -257.1286
 kinetic energy error for atom=    0.0008 (will be added to EATOM!!)
 
 
 POSCAR: New structure
  positions in direct lattice
  No initial velocities read in


 exchange-correlation table for MK
   RHO(1)=    0.500       N(1)  =     2000
   RHO(2)=  100.500       N(2)  =     4000
 


--------------------------------------------------------------------------------------------------------


 ion  position               nearest neighbor table
   1  0.217  0.264  0.215-  23 2.55  48 2.55  47 2.55  22 2.55   3 3.33   2 3.33
   2  0.328  0.264  0.215-  47 2.55  22 2.55  25 2.55  50 2.55  24 2.55  49 2.55   5 3.33   3 3.33
                             4 3.33   1 3.33
   3  0.272  0.360  0.215-  23 2.55  48 2.55  26 2.55  51 2.55  25 2.55  50 2.55   1 3.33   6 3.33
                             2 3.33   5 3.33
   4  0.438  0.264  0.215-  27 2.55  52 2.55  24 2.55  49 2.55  28 2.55  53 2.55   7 3.32   5 3.33
                             2 3.33   8 3.33
   5  0.383  0.360  0.215-  54 2.55  29 2.55  25 2.55  50 2.55  28 2.55  53 2.55   8 3.32   2 3.33
                             4 3.33   3 3.33   9 3.33   6 3.33
   6  0.328  0.456  0.215-  26 2.55  51 2.55  54 2.55  29 2.55  30 2.55  55 2.55   9 3.32   3 3.33
                            10 3.33   5 3.33
   7  0.549  0.264  0.215-  32 2.55  57 2.55  56 2.55  31 2.55  27 2.55  52 2.55   4 3.32  12 3.33
                             8 3.33  11 3.33
   8  0.494  0.360  0.215-  33 2.55  58 2.55  32 2.55  57 2.55  28 2.55  53 2.55   5 3.32  13 3.33
                             7 3.33   4 3.33  12 3.33   9 3.33
   9  0.438  0.456  0.215-  59 2.55  34 2.55  33 2.55  54 2.55  29 2.55  58 2.55  10 3.32   6 3.32
                            14 3.33   5 3.33   8 3.33  13 3.33
  10  0.383  0.552  0.215-  35 2.55  60 2.55  59 2.55  34 2.55  30 2.55  55 2.55   9 3.32  15 3.33
                            14 3.33   6 3.33
  11  0.660  0.264  0.215-  56 2.55  31 2.55  37 2.55  62 2.55  36 2.55  61 2.55  17 3.33  12 3.33
                            16 3.33   7 3.33
  12  0.605  0.360  0.215-  32 2.55  57 2.55  38 2.55  63 2.55  37 2.55  62 2.55   7 3.33  18 3.33
                            11 3.33  17 3.33   8 3.33  13 3.33
  13  0.549  0.456  0.215-  33 2.55  58 2.55  38 2.55  63 2.55  39 2.55  64 2.55  14 3.32  18 3.33
                             8 3.33  19 3.33  12 3.33   9 3.33
  14  0.494  0.552  0.215-  59 2.55  34 2.55  40 2.55  65 2.55  39 2.55  64 2.55  13 3.32  20 3.33
                            15 3.33   9 3.33  19 3.33  10 3.33
  15  0.438  0.648  0.215-  35 2.55  60 2.55  41 2.55  66 2.55  40 2.55  65 2.55  10 3.33  21 3.33
                            14 3.33  20 3.33
  16  0.771  0.264  0.215-  42 2.55  67 2.55  36 2.55  61 2.55  17 3.33  11 3.33
  17  0.715  0.360  0.215-  68 2.55  43 2.55  37 2.55  62 2.55  42 2.55  67 2.55  11 3.33  16 3.33
                            12 3.33  18 3.33
  18  0.660  0.456  0.215-  38 2.55  63 2.55  68 2.55  43 2.55  44 2.55  69 2.55  19 3.32  13 3.33
                            12 3.33  17 3.33
  19  0.605  0.552  0.215-  44 2.55  69 2.55  45 2.55  70 2.55  39 2.55  64 2.55  18 3.32  20 3.33
                            13 3.33  14 3.33
  20  0.549  0.648  0.215-  71 2.55  46 2.55  40 2.55  65 2.55  45 2.55  70 2.55  14 3.33  19 3.33
                            15 3.33  21 3.33
  21  0.494  0.744  0.215-  41 2.55  66 2.55  71 2.55  46 2.55  15 3.33  20 3.33
  22  0.272  0.232  0.158-   2 2.55   1 2.55
  23  0.217  0.328  0.158-   1 2.55   3 2.55
  24  0.383  0.232  0.158-   4 2.55   2 2.55
  25  0.328  0.328  0.158-   5 2.55   2 2.55   3 2.55
  26  0.272  0.424  0.158-   6 2.55   3 2.55
  27  0.494  0.232  0.158-   4 2.55   7 2.55
  28  0.438  0.328  0.158-   4 2.55   5 2.55   8 2.55
  29  0.383  0.424  0.158-   5 2.55   9 2.55   6 2.55
  30  0.328  0.520  0.158-   6 2.55  10 2.55
  31  0.605  0.232  0.158-  11 2.55   7 2.55
  32  0.549  0.328  0.158-   7 2.55  12 2.55   8 2.55
  33  0.494  0.424  0.158-   8 2.55  13 2.55   9 2.55
  34  0.438  0.520  0.158-  14 2.55   9 2.55  10 2.55
  35  0.383  0.616  0.158-  10 2.55  15 2.55
  36  0.715  0.232  0.158-  16 2.55  11 2.55
  37  0.660  0.328  0.158-  11 2.55  17 2.55  12 2.55
  38  0.605  0.424  0.158-  18 2.55  12 2.55  13 2.55
  39  0.549  0.520  0.158-  19 2.55  14 2.55  13 2.55
  40  0.494  0.616  0.158-  20 2.55  14 2.55  15 2.55
  41  0.438  0.712  0.158-  21 2.55  15 2.55
  42  0.771  0.328  0.158-  16 2.55  17 2.55
  43  0.715  0.424  0.158-  17 2.55  18 2.55
  44  0.660  0.520  0.158-  19 2.55  18 2.55
  45  0.605  0.616  0.158-  19 2.55  20 2.55
  46  0.549  0.712  0.158-  20 2.55  21 2.55
  47  0.272  0.232  0.271-   2 2.55   1 2.55
  48  0.217  0.328  0.271-   1 2.55   3 2.55
  49  0.383  0.232  0.271-   4 2.55   2 2.55
  50  0.328  0.328  0.271-   5 2.55   2 2.55   3 2.55
  51  0.272  0.424  0.271-   6 2.55   3 2.55
  52  0.494  0.232  0.271-   4 2.55   7 2.55
  53  0.438  0.328  0.271-   4 2.55   5 2.55   8 2.55
  54  0.383  0.424  0.271-   5 2.55   9 2.55   6 2.55
  55  0.328  0.520  0.271-   6 2.55  10 2.55
  56  0.605  0.232  0.271-  11 2.55   7 2.55
  57  0.549  0.328  0.271-   7 2.55  12 2.55   8 2.55
  58  0.494  0.424  0.271-   8 2.55  13 2.55   9 2.55
  59  0.438  0.520  0.271-  14 2.55   9 2.55  10 2.55
  60  0.383  0.616  0.271-  10 2.55  15 2.55
  61  0.715  0.232  0.271-  16 2.55  11 2.55
  62  0.660  0.328  0.271-  11 2.55  17 2.55  12 2.55
  63  0.605  0.424  0.271-  18 2.55  12 2.55  13 2.55
  64  0.549  0.520  0.271-  19 2.55  14 2.55  13 2.55
  65  0.494  0.616  0.271-  20 2.55  14 2.55  15 2.55
  66  0.438  0.712  0.271-  21 2.55  15 2.55
  67  0.771  0.328  0.271-  16 2.55  17 2.55
  68  0.715  0.424  0.271-  17 2.55  18 2.55
  69  0.660  0.520  0.271-  19 2.55  18 2.55
  70  0.605  0.616  0.271-  19 2.55  20 2.55
  71  0.549  0.712  0.271-  20 2.55  21 2.55
 

IMPORTANT INFORMATION: All symmetrisations will be switched off!
NOSYMM: (Re-)initialisation of all symmetry stuff for point group C_1.


----------------------------------------------------------------------------------------

                                     Primitive cell                                     

  volume of cell :   27000.0000

  direct lattice vectors                    reciprocal lattice vectors
    30.000000000  0.000000000  0.000000000     0.033333333  0.000000000  0.000000000
     0.000000000 30.000000000  0.000000000     0.000000000  0.033333333  0.000000000
     0.000000000  0.000000000 30.000000000     0.000000000  0.000000000  0.033333333

  length of vectors
    30.000000000 30.000000000 30.000000000     0.033333333  0.033333333  0.033333333

  position of ions in fractional coordinates (direct lattice)
     0.216665998  0.263992995  0.214534998
     0.327504009  0.263992012  0.214534998
     0.272085011  0.359979004  0.214534998
     0.438340992  0.263990998  0.214534998
     0.382921994  0.359977990  0.214534998
     0.327500999  0.455967009  0.214534998
     0.549169004  0.263998002  0.214534998
     0.493750006  0.359984994  0.214534998
     0.438329011  0.455972999  0.214534998
     0.382921010  0.551955998  0.214534998
     0.660007000  0.263996005  0.214534998
     0.604587972  0.359982997  0.214534998
     0.549167991  0.455971986  0.214534998
     0.493759006  0.551953971  0.214534998
     0.438340008  0.647940993  0.214534998
     0.770843983  0.263996005  0.214534998
     0.715425014  0.359982997  0.214534998
     0.660004020  0.455971003  0.214534998
     0.604596019  0.551953971  0.214534998
     0.549176991  0.647940993  0.214534998
     0.493757010  0.743929029  0.214534998
     0.272087991  0.232003003  0.158476993
     0.216670007  0.327980995  0.158480003
     0.382923990  0.232004002  0.158469006
     0.327506006  0.327982008  0.158472002
     0.272089005  0.423969001  0.158480003
     0.493752003  0.231999993  0.158466995
     0.438333988  0.327977985  0.158469006
     0.382916987  0.423965007  0.158476993
     0.327504009  0.519958019  0.158466995
     0.604589999  0.232006997  0.158476993
     0.549172997  0.327984989  0.158480003
     0.493755996  0.423972011  0.158488005
     0.438342988  0.519964993  0.158476993
     0.382925004  0.615943015  0.158480003
     0.715426028  0.232007995  0.158469006
     0.660008013  0.327986002  0.158472002
     0.604592025  0.423974007  0.158480003
     0.549179018  0.519966006  0.158469006
     0.493761003  0.615944982  0.158472002
     0.438344002  0.711932003  0.158480003
     0.770837009  0.327982008  0.158469006
     0.715420008  0.423969001  0.158476993
     0.660007000  0.519962013  0.158466995
     0.604588985  0.615939975  0.158469006
     0.549171984  0.711928010  0.158476993
     0.272087991  0.232003003  0.270592988
     0.216670007  0.327980995  0.270590007
     0.382923990  0.232004002  0.270601004
     0.327506006  0.327982008  0.270597994
     0.272089005  0.423969001  0.270590007
     0.493752003  0.231999993  0.270604014
     0.438333988  0.327977985  0.270601004
     0.382916987  0.423965007  0.270592988
     0.327504009  0.519958019  0.270604014
     0.604589999  0.232006997  0.270592988
     0.549172997  0.327984989  0.270590007
     0.493755996  0.423972011  0.270583004
     0.438342988  0.519964993  0.270592988
     0.382925004  0.615943015  0.270590007
     0.715426028  0.232007995  0.270601004
     0.660008013  0.327986002  0.270597994
     0.604592025  0.423974007  0.270590007
     0.549179018  0.519966006  0.270601004
     0.493761003  0.615944982  0.270597994
     0.438344002  0.711932003  0.270590007
     0.770837009  0.327982008  0.270601004
     0.715420008  0.423969001  0.270592988
     0.660007000  0.519962013  0.270604014
     0.604588985  0.615939975  0.270601004
     0.549171984  0.711928010  0.270592988

  ion indices of the primitive-cell ions
   primitive index   ion index
                 1           1
                 2           2
                 3           3
                 4           4
                 5           5
                 6           6
                 7           7
                 8           8
                 9           9
                10          10
                11          11
                12          12
                13          13
                14          14
                15          15
                16          16
                17          17
                18          18
                19          19
                20          20
                21          21
                22          22
                23          23
                24          24
                25          25
                26          26
                27          27
                28          28
                29          29
                30          30
                31          31
                32          32
                33          33
                34          34
                35          35
                36          36
                37          37
                38          38
                39          39
                40          40
                41          41
                42          42
                43          43
                44          44
                45          45
                46          46
                47          47
                48          48
                49          49
                50          50
                51          51
                52          52
                53          53
                54          54
                55          55
                56          56
                57          57
                58          58
                59          59
                60          60
                61          61
                62          62
                63          63
                64          64
                65          65
                66          66
                67          67
                68          68
                69          69
                70          70
                71          71

----------------------------------------------------------------------------------------

 
 
 KPOINTS: Gamma-only (isolated cluster / QD)      

Automatic generation of k-mesh.
 Grid dimensions read from file:
 generate k-points for:    1    1    1

 Generating k-lattice:

  Cartesian coordinates                     Fractional coordinates (reciprocal lattice)
     0.033333333  0.000000000  0.000000000     1.000000000  0.000000000  0.000000000
     0.000000000  0.033333333  0.000000000     0.000000000  1.000000000  0.000000000
     0.000000000  0.000000000  0.033333333     0.000000000  0.000000000  1.000000000

  Length of vectors
     0.033333333  0.033333333  0.033333333

  Shift w.r.t. Gamma in fractional coordinates (k-lattice)
     0.000000000  0.000000000  0.000000000

 
 Subroutine IBZKPT returns following result:
 ===========================================
 
 Found      1 irreducible k-points:
 
 Following reciprocal coordinates:
            Coordinates               Weight
  0.000000  0.000000  0.000000      1.000000
 
 Following cartesian coordinates:
            Coordinates               Weight
  0.000000  0.000000  0.000000      1.000000
 


--------------------------------------------------------------------------------------------------------




 Dimension of arrays:
   k-points           NKPTS =      1   k-points in BZ     NKDIM =      1   number of bands    NBANDS=    256
   number of dos      NEDOS =    301   number of ions     NIONS =     71
   non local maximal  LDIM  =      6   non local SUM 2l+1 LMDIM =     18
   total plane-waves  NPLWV = ******
   max r-space proj   IRMAX =   6723   max aug-charges    IRDMAX= 190268
   dimension x,y,z NGX =   224 NGY =  224 NGZ =  224
   dimension x,y,z NGXF=   448 NGYF=  448 NGZF=  448
   support grid    NGXF=   896 NGYF=  896 NGZF=  896
   ions per type =              21  50
   NGX,Y,Z   is equivalent  to a cutoff of  12.41, 12.41, 12.41 a.u.
   NGXF,Y,Z  is equivalent  to a cutoff of  24.83, 24.83, 24.83 a.u.

 SYSTEM =  WSe2_QD_relax_optB86b-vdW               
 POSCAR =  New structure                           

 Startparameter for this run:
   NWRITE =      2    write-flag & timer
   PREC   = accura    normal or accurate (medium, high low for compatibility)
   ISTART =      0    job   : 0-new  1-cont  2-samecut
   ICHARG =      2    charge: 1-file 2-atom 10-const
   ISPIN  =      1    spin polarized calculation?
   LNONCOLLINEAR =      F non collinear calculations
   LSORBIT =      F    spin-orbit coupling
   INIWAV =      1    electr: 0-lowe 1-rand  2-diag
   LASPH  =      T    aspherical Exc in radial PAW
 Electronic Relaxation 1
   ENCUT  =  500.0 eV  36.75 Ry    6.06 a.u.  54.70 54.70 54.70*2*pi/ulx,y,z
   ENINI  =  500.0     initial cutoff
   ENAUG  =  446.8 eV  augmentation charge cutoff
   NELM   =    120;   NELMIN=  4; NELMDL= -5     # of ELM steps 
   EDIFF  = 0.1E-04   stopping-criterion for ELM
   LREAL  =      T    real-space projection
   NLSPLINE    = F    spline interpolate recip. space projectors
   LCOMPAT=      F    compatible to vasp.4.4
   GGA_COMPAT  = T    GGA compatible to vasp.4.4-vasp.4.6
   LMAXPAW     = -100 max onsite density
   LMAXMIX     =    4 max onsite mixed and CHGCAR
   VOSKOWN=      0    Vosko Wilk Nusair interpolation
   ROPT   =   -0.00025  -0.00025
 Ionic relaxation
   EDIFFG = -.2E-01   stopping-criterion for IOM
   NSW    =    150    number of steps for IOM
   NBLOCK =      1;   KBLOCK =    150    inner block; outer block 
   IBRION =      2    ionic relax: 0-MD 1-quasi-New 2-CG
   NFREE  =      1    steps in history (QN), initial steepest desc. (CG)
   ISIF   =      2    stress and relaxation
   IWAVPR =     11    prediction:  0-non 1-charg 2-wave 3-comb
   ISYM   =      0    0-nonsym 1-usesym 2-fastsym
   LCORR  =      T    Harris-Foulkes like correction to forces

   POTIM  = 0.5000    time-step for ionic-motion
   TEIN   =    0.0    initial temperature
   TEBEG  =    0.0;   TEEND  =   0.0 temperature during run
   SMASS  =  -3.00    Nose mass-parameter (am)
   estimated Nose-frequenzy (Omega)   =  0.10E-29 period in steps = 0.13E+47 mass=  -0.206E-25a.u.
   SCALEE = 1.0000    scale energy and forces
   NPACO  =    256;   APACO  = 10.0  distance and # of slots for P.C.
   PSTRESS=    0.0 pullay stress

  Mass of Ions in am
   POMASS = 183.85 78.96
  Ionic Valenz
   ZVAL   =   6.00  6.00
  Atomic Wigner-Seitz radii
   RWIGS  =  -1.00 -1.00
  virtual crystal weights 
   VCA    =   1.00  1.00
   NELECT =     426.0000    total number of electrons
   NUPDOWN=      -1.0000    fix difference up-down

 DOS related values:
   EMIN   =  10.00;   EMAX   =-10.00  energy-range for DOS
   EFERMI =   0.00;   METHOD = LEGACY      
   ISMEAR =     0;   SIGMA  =   0.10  broadening in eV -4-tet -1-fermi 0-gaus
   EFERMI_NEDOS =   21; number of points for ismear=-14 and -15

 Electronic relaxation 2 (details)
   IALGO  =     38    algorithm
   LDIAG  =      T    sub-space diagonalisation (order eigenvalues)
   LSUBROT=      F    optimize rotation matrix (better conditioning)
   TURBO    =      0    0=normal 1=particle mesh
   IRESTART =      0    0=no restart 2=restart with 2 vectors
   NREBOOT  =      0    no. of reboots
   NMIN     =      0    reboot dimension
   EREF     =   0.00    reference energy to select bands
   IMIX   =      4    mixing-type and parameters
     AMIX     =   0.40;   BMIX     =  1.00
     AMIX_MAG =   1.60;   BMIX_MAG =  1.00
     AMIN     =   0.10
     WC   =   100.;   INIMIX=   1;  MIXPRE=   1;  MAXMIX= -45

 Intra band minimization:
   WEIMIN = 0.0010     energy-eigenvalue tresh-hold
   EBREAK =  0.98E-08  absolut break condition
   DEPER  =   0.30     relativ break condition  

   TIME   =   0.40     timestep for ELM

  volume/ion in A,a.u.               =     380.28      2566.27
  Fermi-wavevector in a.u.,A,eV,Ry     =   0.410604  0.775930  2.293886  0.168596
  Thomas-Fermi vector in A             =   1.366361
 
 Write flags
   LWAVE        =      F    write WAVECAR
   LDOWNSAMPLE  =      F    k-point downsampling of WAVECAR
   LCHARG       =      F    write CHGCAR
   LVTOT        =      F    write LOCPOT, total local potential
   LVHAR        =      F    write LOCPOT, Hartree potential only
   WRT_POTENTIAL= false  ! write potential to hdf5 file
   LELF         =      F    write electronic localiz. function (ELF)
   LORBIT       =      0    0 simple, 1 ext, 2 COOP (PROOUT), +10 PAW based schemes


 Python interface
   PLUGINS active      =      F    recompile with -DPLUGINS to activate
 
 Dipole corrections
   LMONO      =      F    monopole corrections only (constant potential shift)
   LDIPOL     =      F    correct potential (dipole corrections)
   IDIPOL     =      0    1-x, 2-y, 3-z, 4-all directions 
   EPSILON    =  1.0000000 bulk dielectric constant
   LVACPOTAV  =      F  vacuum potentials using an averaging scheme for the charge density
   VACPOTFLAT =  0.1000000 required flatness to determine vacuum potential
 
Coulomb truncation method
  LTRUNCATE          =      F  Coulomb kernel truncation to be used
  IDIMENSIONALITY    =      3  Dimensionality of cutoff (0 molecules / 2 surfaces)
  ISURFACE           =     -1  Direction of surface normal
  LCOARSEN           =      F  Coarsen the charge grid before padding, preferred

 
 Exchange correlation treatment:
   GGA     = MK    functional components
   XC_C    = 1    coefficients multiplying the functional components
   LIBXC   =     F    Libxc                    
   VOSKOWN =     0    Vosko Wilk Nusair interpolation
   LHFCALC =     F    Hartree Fock is set to
   LHFONE  =     F    Hartree Fock one center treatment
   AEXX    =    0.0000 exact exchange contribution

 Parameters of functionals:
   MK:
     No parameter
 
 vdW DFT:
   LUSE_VDW   =     T    switch on vdW DFT
   IVDW_NL    =     1    kernel type
   LSPIN_VDW  =     F    use spin-polarized vdW DFT
   ZAB_VDW    =-0.8491    correlation parameter
   GAMMA_VDW  =1.3963
   ALPHA_VDW  =0.0000
   PARAM1     =0.1234
   PARAM2     =1.0000
   -- rVV10 --
   BPARAM     = 6.3000
   CPARAM     = 0.0093

 Van der Waals corrections
   IVDW    =     0    specifies the selected vdW correction

 Linear response parameters
   LEPSILON=     F    determine dielectric tensor
   LRPA    =     F    only Hartree local field effects (RPA)
   LNABLA  =     F    use nabla operator in PAW spheres
   LVEL    =     F    velocity operator in full k-point grid
   CSHIFT  =0.1000    complex shift for real part using Kramers Kronig
   OMEGAMAX=  -1.0    maximum frequency
   DEG_THRESHOLD= 0.2000000E-02 threshold for treating states as degnerate
   RTIME   =   -0.100 relaxation time in fs
  (WPLASMAI=    0.000 imaginary part of plasma frequency in eV, 0.658/RTIME)
   DFIELD  = 0.0000000 0.0000000 0.0000000 field for delta impulse in time
 
  Optional k-point grid parameters
   LKPOINTS_OPT  =     F    use optional k-point grid
   KPOINTS_OPT_MODE=     1    mode for optional k-point grid
 
 Orbital magnetization related:
   ORBITALMAG=     F  switch on orbital magnetization
   LCHIMAG   =     F  perturbation theory with respect to B field
   DQ        =  0.001000  dq finite difference perturbation B field
   LLRAUG    =     F  two centre corrections for induced B field
   LBONE     =     F  B-component reconstruction in AE one-centre
   LVGVCALC  =     T  calculate vGv susceptibility
   LVGVAPPL  =     F  apply vGv susceptibility instead of pGv for G=0

 Random number generation:
   RANDOM_GENERATOR = DEFAULT
   PCG_SEED         = not used


--------------------------------------------------------------------------------------------------------


 conjugate gradient relaxation of ions
 charge density and potential will be updated during run
 non-spin polarized calculation
 Variant of blocked Davidson
 Davidson routine will perform the subspace rotation
 perform sub-space diagonalisation
    after iterative eigenvector-optimisation
 modified Broyden-mixing scheme, WC =      100.0
 initial mixing is a Kerker type mixing with AMIX =  0.4000 and BMIX =      1.0000
 Hartree-type preconditioning will be used
 using additional bands           43
 real space projection scheme for non local part
 use partial core corrections
 calculate Harris-corrections to forces 
   (improved forces if not selfconsistent)
 use gradient corrections 
 use of overlap-Matrix (Vanderbilt PP)
 Gauss-broadening in eV      SIGMA  =   0.10


--------------------------------------------------------------------------------------------------------


  energy-cutoff  :      500.00
  volume of cell :    27000.00
      direct lattice vectors                 reciprocal lattice vectors
    30.000000000  0.000000000  0.000000000     0.033333333  0.000000000  0.000000000
     0.000000000 30.000000000  0.000000000     0.000000000  0.033333333  0.000000000
     0.000000000  0.000000000 30.000000000     0.000000000  0.000000000  0.033333333

  length of vectors
    30.000000000 30.000000000 30.000000000     0.033333333  0.033333333  0.033333333


 
 k-points in units of 2pi/SCALE and weight: Gamma-only (isolated cluster / QD)      
   0.00000000  0.00000000  0.00000000       1.000
 
 k-points in reciprocal lattice and weights: Gamma-only (isolated cluster / QD)      
   0.00000000  0.00000000  0.00000000       1.000
 
 position of ions in fractional coordinates (direct lattice) 
   0.21666600  0.26399300  0.21453500
   0.32750401  0.26399201  0.21453500
   0.27208501  0.35997900  0.21453500
   0.43834099  0.26399100  0.21453500
   0.38292199  0.35997799  0.21453500
   0.32750100  0.45596701  0.21453500
   0.54916900  0.26399800  0.21453500
   0.49375001  0.35998499  0.21453500
   0.43832901  0.45597300  0.21453500
   0.38292101  0.55195600  0.21453500
   0.66000700  0.26399601  0.21453500
   0.60458797  0.35998300  0.21453500
   0.54916799  0.45597199  0.21453500
   0.49375901  0.55195397  0.21453500
   0.43834001  0.64794099  0.21453500
   0.77084398  0.26399601  0.21453500
   0.71542501  0.35998300  0.21453500
   0.66000402  0.45597100  0.21453500
   0.60459602  0.55195397  0.21453500
   0.54917699  0.64794099  0.21453500
   0.49375701  0.74392903  0.21453500
   0.27208799  0.23200300  0.15847699
   0.21667001  0.32798099  0.15848000
   0.38292399  0.23200400  0.15846901
   0.32750601  0.32798201  0.15847200
   0.27208900  0.42396900  0.15848000
   0.49375200  0.23199999  0.15846699
   0.43833399  0.32797798  0.15846901
   0.38291699  0.42396501  0.15847699
   0.32750401  0.51995802  0.15846699
   0.60459000  0.23200700  0.15847699
   0.54917300  0.32798499  0.15848000
   0.49375600  0.42397201  0.15848801
   0.43834299  0.51996499  0.15847699
   0.38292500  0.61594301  0.15848000
   0.71542603  0.23200799  0.15846901
   0.66000801  0.32798600  0.15847200
   0.60459203  0.42397401  0.15848000
   0.54917902  0.51996601  0.15846901
   0.49376100  0.61594498  0.15847200
   0.43834400  0.71193200  0.15848000
   0.77083701  0.32798201  0.15846901
   0.71542001  0.42396900  0.15847699
   0.66000700  0.51996201  0.15846699
   0.60458898  0.61593998  0.15846901
   0.54917198  0.71192801  0.15847699
   0.27208799  0.23200300  0.27059299
   0.21667001  0.32798099  0.27059001
   0.38292399  0.23200400  0.27060100
   0.32750601  0.32798201  0.27059799
   0.27208900  0.42396900  0.27059001
   0.49375200  0.23199999  0.27060401
   0.43833399  0.32797798  0.27060100
   0.38291699  0.42396501  0.27059299
   0.32750401  0.51995802  0.27060401
   0.60459000  0.23200700  0.27059299
   0.54917300  0.32798499  0.27059001
   0.49375600  0.42397201  0.27058300
   0.43834299  0.51996499  0.27059299
   0.38292500  0.61594301  0.27059001
   0.71542603  0.23200799  0.27060100
   0.66000801  0.32798600  0.27059799
   0.60459203  0.42397401  0.27059001
   0.54917902  0.51996601  0.27060100
   0.49376100  0.61594498  0.27059799
   0.43834400  0.71193200  0.27059001
   0.77083701  0.32798201  0.27060100
   0.71542001  0.42396900  0.27059299
   0.66000700  0.51996201  0.27060401
   0.60458898  0.61593998  0.27060100
   0.54917198  0.71192801  0.27059299
 
 position of ions in cartesian coordinates  (Angst):
   6.49997994  7.91978985  6.43604994
   9.82512027  7.91976036  6.43604994
   8.16255033 10.79937012  6.43604994
  13.15022976  7.91972994  6.43604994
  11.48765982 10.79933970  6.43604994
   9.82502997 13.67901027  6.43604994
  16.47507012  7.91994006  6.43604994
  14.81250018 10.79954982  6.43604994
  13.14987033 13.67918997  6.43604994
  11.48763030 16.55867994  6.43604994
  19.80021000  7.91988015  6.43604994
  18.13763916 10.79948991  6.43604994
  16.47503973 13.67915958  6.43604994
  14.81277018 16.55861913  6.43604994
  13.15020024 19.43822979  6.43604994
  23.12531949  7.91988015  6.43604994
  21.46275042 10.79948991  6.43604994
  19.80012060 13.67913009  6.43604994
  18.13788057 16.55861913  6.43604994
  16.47530973 19.43822979  6.43604994
  14.81271030 22.31787087  6.43604994
   8.16263973  6.96009009  4.75430979
   6.50010021  9.83942985  4.75440009
  11.48771970  6.96012006  4.75407018
   9.82518018  9.83946024  4.75416006
   8.16267015 12.71907003  4.75440009
  14.81256009  6.95999979  4.75400985
  13.15001964  9.83933955  4.75407018
  11.48750961 12.71895021  4.75430979
   9.82512027 15.59874057  4.75400985
  18.13769997  6.96020991  4.75430979
  16.47518991  9.83954967  4.75440009
  14.81267988 12.71916033  4.75464015
  13.15028964 15.59894979  4.75430979
  11.48775012 18.47829045  4.75440009
  21.46278084  6.96023985  4.75407018
  19.80024039  9.83958006  4.75416006
  18.13776075 12.71922021  4.75440009
  16.47537054 15.59898018  4.75407018
  14.81283009 18.47834946  4.75416006
  13.15032006 21.35796009  4.75440009
  23.12511027  9.83946024  4.75407018
  21.46260024 12.71907003  4.75430979
  19.80021000 15.59886039  4.75400985
  18.13766955 18.47819925  4.75407018
  16.47515952 21.35784030  4.75430979
   8.16263973  6.96009009  8.11778964
   6.50010021  9.83942985  8.11770021
  11.48771970  6.96012006  8.11803012
   9.82518018  9.83946024  8.11793982
   8.16267015 12.71907003  8.11770021
  14.81256009  6.95999979  8.11812042
  13.15001964  9.83933955  8.11803012
  11.48750961 12.71895021  8.11778964
   9.82512027 15.59874057  8.11812042
  18.13769997  6.96020991  8.11778964
  16.47518991  9.83954967  8.11770021
  14.81267988 12.71916033  8.11749012
  13.15028964 15.59894979  8.11778964
  11.48775012 18.47829045  8.11770021
  21.46278084  6.96023985  8.11803012
  19.80024039  9.83958006  8.11793982
  18.13776075 12.71922021  8.11770021
  16.47537054 15.59898018  8.11803012
  14.81283009 18.47834946  8.11793982
  13.15032006 21.35796009  8.11770021
  23.12511027  9.83946024  8.11803012
  21.46260024 12.71907003  8.11778964
  19.80021000 15.59886039  8.11812042
  18.13766955 18.47819925  8.11803012
  16.47515952 21.35784030  8.11778964
 


--------------------------------------------------------------------------------------------------------


 k-point     1 :   0.0000 0.0000 0.0000  plane waves:  685365

 maximum and minimum number of plane-waves per node :    685365   685365

 maximum number of plane-waves:    685365
 maximum index in each direction: 
   IXMAX=   54   IYMAX=   54   IZMAX=   54
   IXMIN=  -54   IYMIN=  -54   IZMIN=  -54


 serial   3D FFT for wavefunctions
 parallel 3D FFT for charge:
    minimum data exchange during FFTs selected (reduces bandwidth)


 total amount of memory used by VASP MPI-rank0  3200612. kBytes
=======================================================================

   base                                    :      30000. kBytes
   nonlr-proj                              :      51421. kBytes
   fftplans                                :    1684857. kBytes
   grid                                    :    1081794. kBytes
   one-center                              :       1104. kBytes
   wavefun                                 :     351436. kBytes
 
     INWAV:  cpu time      0.0001: real time      0.0001
 Broyden mixing: mesh for mixing (old mesh)
   NGX =109   NGY =109   NGZ =109
  (NGX  =448   NGY  =448   NGZ  =448)
  gives a total of ****** points

 initial charge density was supplied:
 charge density of overlapping atoms calculated
 number of electron     426.0000000 magnetization 
 keeping initial charge density in first step


--------------------------------------------------------------------------------------------------------


 Maximum index for non-local projection operator         6493
 Maximum index for augmentation-charges        23186 (set IRDMAX)


--------------------------------------------------------------------------------------------------------


 First call to EWALD:  gamma=   0.059
 Maximum number of real-space cells   3x   3x   3
 Maximum number of reciprocal cells   3x   3x   3

    FEWALD:  cpu time      0.0336: real time      0.0367


--------------------------------------- Ionic step        1  -------------------------------------------




--------------------------------------- Iteration      1(   1)  ---------------------------------------


vdW kernel read from vdw_kernel.bindat
  0.0000  0.2424  0.5071  0.7962  1.1119  1.4567  1.8333  2.2446  2.6937  3.1842
  3.7199  4.3049  4.9438  5.6415  6.4036  7.2358  8.1446  9.1372 10.2212 11.4050
 12.6979 14.1099 15.6519 17.3360 19.1751 21.1837 23.3773 25.7729 28.3892 31.2465
 34.3669 37.7748 41.4965 45.5611 50.0000
 
    POTLOK:  cpu time    348.6477: real time    369.1202
    SETDIJ:  cpu time      6.7129: real time      6.9874
     EDDAV:  cpu time    166.6714: real time    173.7573
       DOS:  cpu time      0.0005: real time      0.0005
    --------------------------------------------
      LOOP:  cpu time    522.0325: real time    549.8654

 eigenvalue-minimisations  :   592
 total energy-change (2. order) : 0.3443728E+04  (-0.8957387E+04)
 number of electron     426.0000000 magnetization 
 augmentation part      426.0000000 magnetization 

 Free energy of the ion-electron system (eV)
  ---------------------------------------------------
  alpha Z        PSCENC =        86.09775193
  Ewald energy   TEWEN  =     80195.10497160
  -Hartree energ DENC   =    -94334.55998820
  -exchange      EXHF   =         0.00000000
  -V(xc)+E(xc)   XCENC  =     -1059.64924173
  PAW double counting   =     15664.51527918   -13666.29853733
  entropy T*S    EENTRO =        -0.39265453
  eigenvalues    EBANDS =      -694.05412326
  atomic energy  EATOM  =     17252.96405040
  Solvation  Ediel_sol  =         0.00000000
  ---------------------------------------------------
  free energy    TOTEN  =      3443.72750805 eV

  energy without entropy =     3444.12016258  energy(sigma->0) =     3443.92383531


--------------------------------------------------------------------------------------------------------




--------------------------------------- Iteration      1(   2)  ---------------------------------------


     EDDAV:  cpu time    230.3844: real time    243.4367
       DOS:  cpu time      0.0035: real time      0.0035
    --------------------------------------------
      LOOP:  cpu time    230.3879: real time    243.4401

 eigenvalue-minimisations  :   880
 total energy-change (2. order) :-0.2465048E+04  (-0.2328149E+04)
 number of electron     426.0000000 magnetization 
 augmentation part      426.0000000 magnetization 

 Free energy of the ion-electron system (eV)
  ---------------------------------------------------
  alpha Z        PSCENC =        86.09775193
  Ewald energy   TEWEN  =     80195.10497160
  -Hartree energ DENC   =    -94334.55998820
  -exchange      EXHF   =         0.00000000
  -V(xc)+E(xc)   XCENC  =     -1059.64924173
  PAW double counting   =     15664.51527918   -13666.29853733
  entropy T*S    EENTRO =        -0.30705811
  eigenvalues    EBANDS =     -3159.18792336
  atomic energy  EATOM  =     17252.96405040
  Solvation  Ediel_sol  =         0.00000000
  ---------------------------------------------------
  free energy    TOTEN  =       978.67930438 eV

  energy without entropy =      978.98636249  energy(sigma->0) =      978.83283343


--------------------------------------------------------------------------------------------------------




--------------------------------------- Iteration      1(   3)  ---------------------------------------


     EDDAV:  cpu time    182.2329: real time    191.0704
       DOS:  cpu time      0.0003: real time      0.0003
    --------------------------------------------
      LOOP:  cpu time    182.2332: real time    191.0707

 eigenvalue-minimisations  :   656
 total energy-change (2. order) :-0.1164204E+04  (-0.1136889E+04)
 number of electron     426.0000000 magnetization 
 augmentation part      426.0000000 magnetization 

 Free energy of the ion-electron system (eV)
  ---------------------------------------------------
  alpha Z        PSCENC =        86.09775193
  Ewald energy   TEWEN  =     80195.10497160
  -Hartree energ DENC   =    -94334.55998820
  -exchange      EXHF   =         0.00000000
  -V(xc)+E(xc)   XCENC  =     -1059.64924173
  PAW double counting   =     15664.51527918   -13666.29853733
  entropy T*S    EENTRO =        -0.00136897
  eigenvalues    EBANDS =     -4323.69795700
  atomic energy  EATOM  =     17252.96405040
  Solvation  Ediel_sol  =         0.00000000
  ---------------------------------------------------
  free energy    TOTEN  =      -185.52504013 eV

  energy without entropy =     -185.52367115  energy(sigma->0) =     -185.52435564


--------------------------------------------------------------------------------------------------------




--------------------------------------- Iteration      1(   4)  ---------------------------------------


     EDDAV:  cpu time    165.2720: real time    174.1213
       DOS:  cpu time      0.0005: real time      0.0005
    --------------------------------------------
      LOOP:  cpu time    165.2725: real time    174.1218

 eigenvalue-minimisations  :   584
 total energy-change (2. order) :-0.1715300E+03  (-0.1678600E+03)
 number of electron     426.0000000 magnetization 
 augmentation part      426.0000000 magnetization 

 Free energy of the ion-electron system (eV)
  ---------------------------------------------------
  alpha Z        PSCENC =        86.09775193
  Ewald energy   TEWEN  =     80195.10497160
  -Hartree energ DENC   =    -94334.55998820
  -exchange      EXHF   =         0.00000000
  -V(xc)+E(xc)   XCENC  =     -1059.64924173
  PAW double counting   =     15664.51527918   -13666.29853733
  entropy T*S    EENTRO =        -0.12268066
  eigenvalues    EBANDS =     -4495.10664791
  atomic energy  EATOM  =     17252.96405040
  Solvation  Ediel_sol  =         0.00000000
  ---------------------------------------------------
  free energy    TOTEN  =      -357.05504272 eV

  energy without entropy =     -356.93236207  energy(sigma->0) =     -356.99370240


--------------------------------------------------------------------------------------------------------




--------------------------------------- Iteration      1(   5)  ---------------------------------------


     EDDAV:  cpu time    193.5857: real time    205.4136
       DOS:  cpu time      0.0043: real time      0.0043
    CHARGE:  cpu time     19.2892: real time     20.4866
    MIXING:  cpu time      0.5316: real time      0.5548
    --------------------------------------------
      LOOP:  cpu time    213.4109: real time    226.4594

 eigenvalue-minimisations  :   720
 total energy-change (2. order) :-0.9668760E+01  (-0.9076532E+01)
 number of electron     425.9999996 magnetization 
 augmentation part      -50.3698451 magnetization 

 Broyden mixing:
  rms(total) = 0.91457E+01    rms(broyden)= 0.91457E+01
  rms(prec ) = 0.92637E+01
  weight for this iteration     100.00

 Free energy of the ion-electron system (eV)
  ---------------------------------------------------
  alpha Z        PSCENC =        86.09775193
  Ewald energy   TEWEN  =     80195.10497160
  -Hartree energ DENC   =    -94334.55998820
  -exchange      EXHF   =         0.00000000
  -V(xc)+E(xc)   XCENC  =     -1059.64924173
  PAW double counting   =     15664.51527918   -13666.29853733
  entropy T*S    EENTRO =        -0.28472091
  eigenvalues    EBANDS =     -4504.61336805
  atomic energy  EATOM  =     17252.96405040
  Solvation  Ediel_sol  =         0.00000000
  ---------------------------------------------------
  free energy    TOTEN  =      -366.72380312 eV

  energy without entropy =     -366.43908221  energy(sigma->0) =     -366.58144266


--------------------------------------------------------------------------------------------------------




--------------------------------------- Iteration      1(   6)  ---------------------------------------


    POTLOK:  cpu time    348.8019: real time    368.7939
    SETDIJ:  cpu time      6.5289: real time      6.9109
     EDDAV:  cpu time    192.8837: real time    203.8925
       DOS:  cpu time      0.0044: real time      0.0044
    CHARGE:  cpu time     19.7671: real time     20.6726
    MIXING:  cpu time      0.4986: real time      0.5176
    --------------------------------------------
      LOOP:  cpu time    568.4846: real time    600.7918

 eigenvalue-minimisations  :   728
 total energy-change (2. order) : 0.5715148E+01  (-0.3702416E+02)
 number of electron     425.9999997 magnetization 
 augmentation part      -33.0990801 magnetization 

 Broyden mixing:
  rms(total) = 0.47843E+01    rms(broyden)= 0.47843E+01
  rms(prec ) = 0.52868E+01
  weight for this iteration     100.00

 eigenvalues of (default mixing * dielectric matrix)
  average eigenvalue GAMMA=   0.9651
  0.9651

 Free energy of the ion-electron system (eV)
  ---------------------------------------------------
  alpha Z        PSCENC =        86.09775193
  Ewald energy   TEWEN  =     80195.10497160
  -Hartree energ DENC   =    -94307.00347560
  -exchange      EXHF   =         0.00000000
  -V(xc)+E(xc)   XCENC  =     -1040.86792719
  PAW double counting   =     20964.75625064   -18986.92383010
  entropy T*S    EENTRO =        -0.16803829
  eigenvalues    EBANDS =     -4524.96840812
  atomic energy  EATOM  =     17252.96405040
  Solvation  Ediel_sol  =         0.00000000
  ---------------------------------------------------
  free energy    TOTEN  =      -361.00865473 eV

  energy without entropy =     -360.84061644  energy(sigma->0) =     -360.92463558


--------------------------------------------------------------------------------------------------------




--------------------------------------- Iteration      1(   7)  ---------------------------------------


    POTLOK:  cpu time    354.7157: real time    372.1089
    SETDIJ:  cpu time      6.5897: real time      6.9382
     EDDAV:  cpu time    221.0525: real time    231.9315
       DOS:  cpu time      0.0004: real time      0.0004
    CHARGE:  cpu time     19.8898: real time     20.8776
    MIXING:  cpu time      0.5325: real time      0.5686
    --------------------------------------------
      LOOP:  cpu time    602.7806: real time    632.4251

 eigenvalue-minimisations  :   848
 total energy-change (2. order) :-0.1650488E+02  (-0.7104992E+02)
 number of electron     425.9999996 magnetization 
 augmentation part      -45.7623418 magnetization 

 Broyden mixing:
  rms(total) = 0.38900E+01    rms(broyden)= 0.38899E+01
  rms(prec ) = 0.42371E+01
  weight for this iteration     100.00

 eigenvalues of (default mixing * dielectric matrix)
  average eigenvalue GAMMA=   1.1488
  1.8296  0.4680

 Free energy of the ion-electron system (eV)
  ---------------------------------------------------
  alpha Z        PSCENC =        86.09775193
  Ewald energy   TEWEN  =     80195.10497160
  -Hartree energ DENC   =    -94385.80322619
  -exchange      EXHF   =         0.00000000
  -V(xc)+E(xc)   XCENC  =     -1049.72927901
  PAW double counting   =     23998.28815176   -22019.85326971
  entropy T*S    EENTRO =        -0.14781651
  eigenvalues    EBANDS =     -4454.43487243
  atomic energy  EATOM  =     17252.96405040
  Solvation  Ediel_sol  =         0.00000000
  ---------------------------------------------------
  free energy    TOTEN  =      -377.51353817 eV

  energy without entropy =     -377.36572166  energy(sigma->0) =     -377.43962992


--------------------------------------------------------------------------------------------------------




--------------------------------------- Iteration      1(   8)  ---------------------------------------


    POTLOK:  cpu time    350.9794: real time    370.1974
    SETDIJ:  cpu time      6.5818: real time      7.0070
     EDDAV:  cpu time    176.8502: real time    185.7680
       DOS:  cpu time      0.0029: real time      0.0029
    CHARGE:  cpu time     19.2685: real time     20.1333
    MIXING:  cpu time      0.4850: real time      0.5100
    --------------------------------------------
      LOOP:  cpu time    554.1679: real time    583.6187

 eigenvalue-minimisations  :   648
 total energy-change (2. order) : 0.2953491E+02  (-0.1017042E+02)
 number of electron     425.9999996 magnetization 
 augmentation part      -45.8968993 magnetization 

 Broyden mixing:
  rms(total) = 0.25204E+01    rms(broyden)= 0.25204E+01
  rms(prec ) = 0.27957E+01
  weight for this iteration     100.00

 eigenvalues of (default mixing * dielectric matrix)
  average eigenvalue GAMMA=   1.0134
  2.0494  0.4954  0.4954

 Free energy of the ion-electron system (eV)
  ---------------------------------------------------
  alpha Z        PSCENC =        86.09775193
  Ewald energy   TEWEN  =     80195.10497160
  -Hartree energ DENC   =    -94479.20696774
  -exchange      EXHF   =         0.00000000
  -V(xc)+E(xc)   XCENC  =     -1043.51066886
  PAW double counting   =     28455.33731492   -26485.55291126
  entropy T*S    EENTRO =        -0.20599657
  eigenvalues    EBANDS =     -4329.00617555
  atomic energy  EATOM  =     17252.96405040
  Solvation  Ediel_sol  =         0.00000000
  ---------------------------------------------------
  free energy    TOTEN  =      -347.97863115 eV

  energy without entropy =     -347.77263458  energy(sigma->0) =     -347.87563287


--------------------------------------------------------------------------------------------------------




--------------------------------------- Iteration      1(   9)  ---------------------------------------


    POTLOK:  cpu time    353.7545: real time    370.7158
    SETDIJ:  cpu time      6.6422: real time      7.0023
     EDDAV:  cpu time    193.4433: real time    205.7828
       DOS:  cpu time      0.0044: real time      0.0044
    CHARGE:  cpu time     19.1630: real time     20.2930
    MIXING:  cpu time      0.5708: real time      0.5999
    --------------------------------------------
      LOOP:  cpu time    573.5782: real time    604.3982

 eigenvalue-minimisations  :   736
 total energy-change (2. order) : 0.1416320E+02  (-0.3400846E+01)
 number of electron     425.9999996 magnetization 
 augmentation part      -44.5801928 magnetization 

 Broyden mixing:
  rms(total) = 0.15662E+01    rms(broyden)= 0.15662E+01
  rms(prec ) = 0.17702E+01
  weight for this iteration     100.00

 eigenvalues of (default mixing * dielectric matrix)
  average eigenvalue GAMMA=   0.9258
  2.1436  0.5726  0.5726  0.4145

 Free energy of the ion-electron system (eV)
  ---------------------------------------------------
  alpha Z        PSCENC =        86.09775193
  Ewald energy   TEWEN  =     80195.10497160
  -Hartree energ DENC   =    -94505.43497239
  -exchange      EXHF   =         0.00000000
  -V(xc)+E(xc)   XCENC  =     -1040.50695612
  PAW double counting   =     29533.06843661   -27565.89734812
  entropy T*S    EENTRO =        -0.03922806
  eigenvalues    EBANDS =     -4289.17213619
  atomic energy  EATOM  =     17252.96405040
  Solvation  Ediel_sol  =         0.00000000
  ---------------------------------------------------
  free energy    TOTEN  =      -333.81543036 eV

  energy without entropy =     -333.77620229  energy(sigma->0) =     -333.79581632


--------------------------------------------------------------------------------------------------------




--------------------------------------- Iteration      1(  10)  ---------------------------------------


    POTLOK:  cpu time    351.4713: real time    370.5399
    SETDIJ:  cpu time      6.6579: real time      7.0331
     EDDAV:  cpu time    200.7736: real time    212.8683
       DOS:  cpu time      0.0114: real time      0.0114
    CHARGE:  cpu time     19.5513: real time     20.5282
    MIXING:  cpu time      0.5070: real time      0.5280
    --------------------------------------------
      LOOP:  cpu time    578.9725: real time    611.5091

 eigenvalue-minimisations  :   768
 total energy-change (2. order) : 0.4881139E+01  (-0.1710793E+01)
 number of electron     425.9999997 magnetization 
 augmentation part      -43.4856646 magnetization 

 Broyden mixing:
  rms(total) = 0.93429E+00    rms(broyden)= 0.93428E+00
  rms(prec ) = 0.10477E+01
  weight for this iteration     100.00

 eigenvalues of (default mixing * dielectric matrix)
  average eigenvalue GAMMA=   0.8496
  2.1566  0.6356  0.6356  0.4101  0.4101

 Free energy of the ion-electron system (eV)
  ---------------------------------------------------
  alpha Z        PSCENC =        86.09775193
  Ewald energy   TEWEN  =     80195.10497160
  -Hartree energ DENC   =    -94536.67685325
  -exchange      EXHF   =         0.00000000
  -V(xc)+E(xc)   XCENC  =     -1038.68457309
  PAW double counting   =     29928.82299272   -27962.77045767
  entropy T*S    EENTRO =        -0.16572609
  eigenvalues    EBANDS =     -4253.62644765
  atomic energy  EATOM  =     17252.96405040
  Solvation  Ediel_sol  =         0.00000000
  ---------------------------------------------------
  free energy    TOTEN  =      -328.93429111 eV

  energy without entropy =     -328.76856502  energy(sigma->0) =     -328.85142807


--------------------------------------------------------------------------------------------------------




--------------------------------------- Iteration      1(  11)  ---------------------------------------


    POTLOK:  cpu time    355.0826: real time    370.1338
    SETDIJ:  cpu time      6.6700: real time      6.9339
     EDDAV:  cpu time    201.9225: real time    211.4798
       DOS:  cpu time      0.0053: real time      0.0053
    CHARGE:  cpu time     19.4378: real time     20.4446
    MIXING:  cpu time      0.5667: real time      0.6009
    --------------------------------------------
      LOOP:  cpu time    583.6850: real time    609.5983

 eigenvalue-minimisations  :   760
 total energy-change (2. order) : 0.1055161E+01  (-0.8095037E+00)
 number of electron     425.9999997 magnetization 
 augmentation part      -42.8737250 magnetization 

 Broyden mixing:
  rms(total) = 0.67244E+00    rms(broyden)= 0.67244E+00
  rms(prec ) = 0.75600E+00
  weight for this iteration     100.00

 eigenvalues of (default mixing * dielectric matrix)
  average eigenvalue GAMMA=   0.7961
  2.1388  0.7195  0.7195  0.4491  0.4491  0.3005

 Free energy of the ion-electron system (eV)
  ---------------------------------------------------
  alpha Z        PSCENC =        86.09775193
  Ewald energy   TEWEN  =     80195.10497160
  -Hartree energ DENC   =    -94540.71740265
  -exchange      EXHF   =         0.00000000
  -V(xc)+E(xc)   XCENC  =     -1037.85469993
  PAW double counting   =     30007.00386186   -28041.24830264
  entropy T*S    EENTRO =        -0.24057281
  eigenvalues    EBANDS =     -4248.98878827
  atomic energy  EATOM  =     17252.96405040
  Solvation  Ediel_sol  =         0.00000000
  ---------------------------------------------------
  free energy    TOTEN  =      -327.87913052 eV

  energy without entropy =     -327.63855771  energy(sigma->0) =     -327.75884411


--------------------------------------------------------------------------------------------------------




--------------------------------------- Iteration      1(  12)  ---------------------------------------


    POTLOK:  cpu time    353.1950: real time    370.2082
    SETDIJ:  cpu time      7.0741: real time      7.3722
     EDDAV:  cpu time    185.5349: real time    194.4786
       DOS:  cpu time      0.0035: real time      0.0035
    CHARGE:  cpu time     19.8603: real time     20.9946
    MIXING:  cpu time      0.5004: real time      0.5436
    --------------------------------------------
      LOOP:  cpu time    566.1682: real time    593.6007

 eigenvalue-minimisations  :   688
 total energy-change (2. order) : 0.4653802E+00  (-0.1827116E+00)
 number of electron     425.9999997 magnetization 
 augmentation part      -42.5577780 magnetization 

 Broyden mixing:
  rms(total) = 0.54905E+00    rms(broyden)= 0.54905E+00
  rms(prec ) = 0.61226E+00
  weight for this iteration     100.00

 eigenvalues of (default mixing * dielectric matrix)
  average eigenvalue GAMMA=   0.7753
  2.1324  0.8207  0.8207  0.4796  0.4796  0.3472  0.3472

 Free energy of the ion-electron system (eV)
  ---------------------------------------------------
  alpha Z        PSCENC =        86.09775193
  Ewald energy   TEWEN  =     80195.10497160
  -Hartree energ DENC   =    -94542.46907359
  -exchange      EXHF   =         0.00000000
  -V(xc)+E(xc)   XCENC  =     -1037.49208611
  PAW double counting   =     29988.21220637   -28022.47567565
  entropy T*S    EENTRO =        -0.27204152
  eigenvalues    EBANDS =     -4247.08385373
  atomic energy  EATOM  =     17252.96405040
  Solvation  Ediel_sol  =         0.00000000
  ---------------------------------------------------
  free energy    TOTEN  =      -327.41375031 eV

  energy without entropy =     -327.14170879  energy(sigma->0) =     -327.27772955


--------------------------------------------------------------------------------------------------------




--------------------------------------- Iteration      1(  13)  ---------------------------------------


    POTLOK:  cpu time    350.6685: real time    369.6382
    SETDIJ:  cpu time      6.8973: real time      7.2090
     EDDAV:  cpu time    191.4056: real time    201.7055
       DOS:  cpu time      0.0004: real time      0.0004
    CHARGE:  cpu time     19.5749: real time     20.5753
    MIXING:  cpu time      0.5843: real time      0.6173
    --------------------------------------------
      LOOP:  cpu time    569.1310: real time    599.7457

 eigenvalue-minimisations  :   720
 total energy-change (2. order) : 0.3322479E+00  (-0.6611452E-01)
 number of electron     425.9999997 magnetization 
 augmentation part      -42.3280680 magnetization 

 Broyden mixing:
  rms(total) = 0.41441E+00    rms(broyden)= 0.41441E+00
  rms(prec ) = 0.44727E+00
  weight for this iteration     100.00

 eigenvalues of (default mixing * dielectric matrix)
  average eigenvalue GAMMA=   0.9002
  2.1673  1.3445  1.3445  0.6150  0.6150  0.4589  0.3282  0.3282

 Free energy of the ion-electron system (eV)
  ---------------------------------------------------
  alpha Z        PSCENC =        86.09775193
  Ewald energy   TEWEN  =     80195.10497160
  -Hartree energ DENC   =    -94552.50390338
  -exchange      EXHF   =         0.00000000
  -V(xc)+E(xc)   XCENC  =     -1037.15180462
  PAW double counting   =     30012.05379015   -28046.35983787
  entropy T*S    EENTRO =        -0.30276824
  eigenvalues    EBANDS =     -4236.98375236
  atomic energy  EATOM  =     17252.96405040
  Solvation  Ediel_sol  =         0.00000000
  ---------------------------------------------------
  free energy    TOTEN  =      -327.08150240 eV

  energy without entropy =     -326.77873416  energy(sigma->0) =     -326.93011828


--------------------------------------------------------------------------------------------------------




--------------------------------------- Iteration      1(  14)  ---------------------------------------


    POTLOK:  cpu time    352.0567: real time    370.3049
    SETDIJ:  cpu time      7.0459: real time      7.3962
     EDDAV:  cpu time    192.7508: real time    202.7226
       DOS:  cpu time      0.0004: real time      0.0004
    CHARGE:  cpu time     20.1974: real time     21.1176
    MIXING:  cpu time      0.5467: real time      0.5668
    --------------------------------------------
      LOOP:  cpu time    572.5980: real time    602.1085

 eigenvalue-minimisations  :   728
 total energy-change (2. order) : 0.1699563E+00  (-0.7772722E-01)
 number of electron     425.9999997 magnetization 
 augmentation part      -42.0450702 magnetization 

 Broyden mixing:
  rms(total) = 0.27961E+00    rms(broyden)= 0.27961E+00
  rms(prec ) = 0.33843E+00
  weight for this iteration     100.00

 eigenvalues of (default mixing * dielectric matrix)
  average eigenvalue GAMMA=   0.8994
  2.1824  1.5344  1.5344  0.6263  0.6263  0.4854  0.4854  0.3099  0.3099

 Free energy of the ion-electron system (eV)
  ---------------------------------------------------
  alpha Z        PSCENC =        86.09775193
  Ewald energy   TEWEN  =     80195.10497160
  -Hartree energ DENC   =    -94568.36726453
  -exchange      EXHF   =         0.00000000
  -V(xc)+E(xc)   XCENC  =     -1036.41356532
  PAW double counting   =     30146.57581681   -28180.99304058
  entropy T*S    EENTRO =        -0.30489923
  eigenvalues    EBANDS =     -4221.57536721
  atomic energy  EATOM  =     17252.96405040
  Solvation  Ediel_sol  =         0.00000000
  ---------------------------------------------------
  free energy    TOTEN  =      -326.91154613 eV

  energy without entropy =     -326.60664690  energy(sigma->0) =     -326.75909651


--------------------------------------------------------------------------------------------------------




--------------------------------------- Iteration      1(  15)  ---------------------------------------


    POTLOK:  cpu time    352.4488: real time    373.1963
    SETDIJ:  cpu time      6.8248: real time      7.2732
     EDDAV:  cpu time    211.0489: real time    220.0791
       DOS:  cpu time      0.0041: real time      0.0041
    CHARGE:  cpu time     19.6348: real time     20.5199
    MIXING:  cpu time      0.6006: real time      0.6286
    --------------------------------------------
      LOOP:  cpu time    590.5621: real time    621.7013

 eigenvalue-minimisations  :   800
 total energy-change (2. order) : 0.1983803E-01  (-0.2294510E+00)
 number of electron     425.9999997 magnetization 
 augmentation part      -41.8299378 magnetization 

 Broyden mixing:
  rms(total) = 0.25835E+00    rms(broyden)= 0.25835E+00
  rms(prec ) = 0.35722E+00
  weight for this iteration     100.00

 eigenvalues of (default mixing * dielectric matrix)
  average eigenvalue GAMMA=   0.8683
  2.2037  1.6100  1.6100  0.6857  0.6857  0.5351  0.5351  0.3181  0.3181  0.1810

 Free energy of the ion-electron system (eV)
  ---------------------------------------------------
  alpha Z        PSCENC =        86.09775193
  Ewald energy   TEWEN  =     80195.10497160
  -Hartree energ DENC   =    -94577.61385164
  -exchange      EXHF   =         0.00000000
  -V(xc)+E(xc)   XCENC  =     -1036.06650685
  PAW double counting   =     30182.11682145   -28216.56816621
  entropy T*S    EENTRO =        -0.35357273
  eigenvalues    EBANDS =     -4212.57320603
  atomic energy  EATOM  =     17252.96405040
  Solvation  Ediel_sol  =         0.00000000
  ---------------------------------------------------
  free energy    TOTEN  =      -326.89170810 eV

  energy without entropy =     -326.53813537  energy(sigma->0) =     -326.71492173


--------------------------------------------------------------------------------------------------------




--------------------------------------- Iteration      1(  16)  ---------------------------------------


    POTLOK:  cpu time    353.3123: real time    371.0828
    SETDIJ:  cpu time      6.7149: real time      7.0818
     EDDAV:  cpu time    201.5304: real time    211.4853
       DOS:  cpu time      0.0027: real time      0.0027
    CHARGE:  cpu time     19.4999: real time     20.6301
    MIXING:  cpu time      0.5490: real time      0.5771
    --------------------------------------------
      LOOP:  cpu time    581.6092: real time    610.8597

 eigenvalue-minimisations  :   760
 total energy-change (2. order) : 0.7025983E-01  (-0.1349577E+00)
 number of electron     425.9999997 magnetization 
 augmentation part      -41.7477861 magnetization 

 Broyden mixing:
  rms(total) = 0.20798E+00    rms(broyden)= 0.20798E+00
  rms(prec ) = 0.26426E+00
  weight for this iteration     100.00

 eigenvalues of (default mixing * dielectric matrix)
  average eigenvalue GAMMA=   0.8218
  2.2249  1.6390  1.6390  0.7196  0.7196  0.5295  0.5295  0.3251  0.3251  0.2442
  0.1442

 Free energy of the ion-electron system (eV)
  ---------------------------------------------------
  alpha Z        PSCENC =        86.09775193
  Ewald energy   TEWEN  =     80195.10497160
  -Hartree energ DENC   =    -94584.68853374
  -exchange      EXHF   =         0.00000000
  -V(xc)+E(xc)   XCENC  =     -1035.85474474
  PAW double counting   =     30195.51625428   -28229.98372060
  entropy T*S    EENTRO =        -0.42688404
  eigenvalues    EBANDS =     -4205.55059335
  atomic energy  EATOM  =     17252.96405040
  Solvation  Ediel_sol  =         0.00000000
  ---------------------------------------------------
  free energy    TOTEN  =      -326.82144827 eV

  energy without entropy =     -326.39456424  energy(sigma->0) =     -326.60800626


--------------------------------------------------------------------------------------------------------




--------------------------------------- Iteration      1(  17)  ---------------------------------------


    POTLOK:  cpu time    350.3507: real time    370.4522
    SETDIJ:  cpu time      6.6045: real time      7.0188
     EDDAV:  cpu time    206.9458: real time    217.2552
       DOS:  cpu time      0.0045: real time      0.0045
    CHARGE:  cpu time     19.9887: real time     21.1725
    MIXING:  cpu time      0.6199: real time      0.6639
    --------------------------------------------
      LOOP:  cpu time    584.5140: real time    616.5672

 eigenvalue-minimisations  :   784
 total energy-change (2. order) : 0.4075693E-01  (-0.2635573E-01)
 number of electron     425.9999997 magnetization 
 augmentation part      -41.7921237 magnetization 

 Broyden mixing:
  rms(total) = 0.11191E+00    rms(broyden)= 0.11191E+00
  rms(prec ) = 0.13855E+00
  weight for this iteration     100.00

 eigenvalues of (default mixing * dielectric matrix)
  average eigenvalue GAMMA=   0.7962
  2.2384  1.6036  1.6036  0.7887  0.7887  0.5354  0.5354  0.4612  0.3197  0.3197
  0.2260  0.1340

 Free energy of the ion-electron system (eV)
  ---------------------------------------------------
  alpha Z        PSCENC =        86.09775193
  Ewald energy   TEWEN  =     80195.10497160
  -Hartree energ DENC   =    -94586.27152656
  -exchange      EXHF   =         0.00000000
  -V(xc)+E(xc)   XCENC  =     -1035.80873378
  PAW double counting   =     30196.76144956   -28231.23056959
  entropy T*S    EENTRO =        -0.39919619
  eigenvalues    EBANDS =     -4203.99888870
  atomic energy  EATOM  =     17252.96405040
  Solvation  Ediel_sol  =         0.00000000
  ---------------------------------------------------
  free energy    TOTEN  =      -326.78069134 eV

  energy without entropy =     -326.38149515  energy(sigma->0) =     -326.58109325


--------------------------------------------------------------------------------------------------------




--------------------------------------- Iteration      1(  18)  ---------------------------------------


    POTLOK:  cpu time    353.7815: real time    370.0798
    SETDIJ:  cpu time      6.7481: real time      7.0907
     EDDAV:  cpu time    215.2488: real time    225.7558
       DOS:  cpu time      0.0032: real time      0.0032
    CHARGE:  cpu time     20.0189: real time     21.0352
    MIXING:  cpu time      0.5826: real time      0.6097
    --------------------------------------------
      LOOP:  cpu time    596.3832: real time    624.5743

 eigenvalue-minimisations  :   824
 total energy-change (2. order) : 0.1359871E-01  (-0.1047550E-01)
 number of electron     425.9999997 magnetization 
 augmentation part      -41.6909473 magnetization 

 Broyden mixing:
  rms(total) = 0.82603E-01    rms(broyden)= 0.82601E-01
  rms(prec ) = 0.98747E-01
  weight for this iteration     100.00

 eigenvalues of (default mixing * dielectric matrix)
  average eigenvalue GAMMA=   0.7877
  2.2576  1.6919  1.3258  1.0047  1.0047  0.5990  0.5990  0.5138  0.3284  0.3284
  0.2722  0.1817  0.1336

 Free energy of the ion-electron system (eV)
  ---------------------------------------------------
  alpha Z        PSCENC =        86.09775193
  Ewald energy   TEWEN  =     80195.10497160
  -Hartree energ DENC   =    -94589.95784550
  -exchange      EXHF   =         0.00000000
  -V(xc)+E(xc)   XCENC  =     -1035.71762866
  PAW double counting   =     30199.44837998   -28233.92945476
  entropy T*S    EENTRO =        -0.42834489
  eigenvalues    EBANDS =     -4200.34897273
  atomic energy  EATOM  =     17252.96405040
  Solvation  Ediel_sol  =         0.00000000
  ---------------------------------------------------
  free energy    TOTEN  =      -326.76709263 eV

  energy without entropy =     -326.33874775  energy(sigma->0) =     -326.55292019


--------------------------------------------------------------------------------------------------------




--------------------------------------- Iteration      1(  19)  ---------------------------------------


    POTLOK:  cpu time    352.0517: real time    370.4691
    SETDIJ:  cpu time      6.5590: real time      6.9620
[...]

 eigenvalues of (default mixing * dielectric matrix)
  average eigenvalue GAMMA=   0.8658
  3.5575  2.6772  1.9281  1.5155  1.5155  1.1521  1.1521  0.7218  0.7218  0.7304
  0.5729  0.5729  0.4823  0.4047  0.3646  0.2931  0.2931  0.2763  0.2643  0.1331
  0.1751  0.2086  0.1992

 Free energy of the ion-electron system (eV)
  ---------------------------------------------------
  alpha Z        PSCENC =        86.09775193
  Ewald energy   TEWEN  =     80195.10497160
  -Hartree energ DENC   =    -94615.03893384
  -exchange      EXHF   =         0.00000000
  -V(xc)+E(xc)   XCENC  =     -1035.40914403
  PAW double counting   =     30179.62601591   -28214.09226936
  entropy T*S    EENTRO =        -0.42415574
  eigenvalues    EBANDS =     -4175.57785025
  atomic energy  EATOM  =     17252.96405040
  Solvation  Ediel_sol  =         0.00000000
  ---------------------------------------------------
  free energy    TOTEN  =      -326.74956340 eV

  energy without entropy =     -326.32540766  energy(sigma->0) =     -326.53748553


--------------------------------------------------------------------------------------------------------




--------------------------------------- Iteration      1(  29)  ---------------------------------------


    POTLOK:  cpu time    357.6790: real time    372.0499
    SETDIJ:  cpu time      6.6253: real time      7.0100
     EDDAV:  cpu time    146.0481: real time    153.5037
       DOS:  cpu time      0.0032: real time      0.0032
    CHARGE:  cpu time     19.8105: real time     20.5982
    MIXING:  cpu time      0.7907: real time      0.8248
    --------------------------------------------
      LOOP:  cpu time    530.9568: real time    553.9898

 eigenvalue-minimisations  :   504
 total energy-change (2. order) :-0.3517870E-03  (-0.4382577E-04)
 number of electron     425.9999997 magnetization 
 augmentation part      -41.6883035 magnetization 

 Broyden mixing:
  rms(total) = 0.41029E-02    rms(broyden)= 0.41029E-02
  rms(prec ) = 0.51410E-02
  weight for this iteration     100.00

 eigenvalues of (default mixing * dielectric matrix)
  average eigenvalue GAMMA=   0.8972
  4.1478  2.7651  2.1027  1.6535  1.6535  1.1656  1.1656  0.7504  0.7504  0.6172
  0.6172  0.5725  0.5725  0.4682  0.3489  0.3489  0.2888  0.2888  0.2803  0.2578
  0.1331  0.1751  0.2087  0.1997

 Free energy of the ion-electron system (eV)
  ---------------------------------------------------
  alpha Z        PSCENC =        86.09775193
  Ewald energy   TEWEN  =     80195.10497160
  -Hartree energ DENC   =    -94616.88983016
  -exchange      EXHF   =         0.00000000
  -V(xc)+E(xc)   XCENC  =     -1035.39562518
  PAW double counting   =     30179.00840239   -28213.47394525
  entropy T*S    EENTRO =        -0.42464332
  eigenvalues    EBANDS =     -4173.74104759
  atomic energy  EATOM  =     17252.96405040
  Solvation  Ediel_sol  =         0.00000000
  ---------------------------------------------------
  free energy    TOTEN  =      -326.74991519 eV

  energy without entropy =     -326.32527187  energy(sigma->0) =     -326.53759353


--------------------------------------------------------------------------------------------------------




--------------------------------------- Iteration      1(  30)  ---------------------------------------


    POTLOK:  cpu time    355.6563: real time    372.1702
    SETDIJ:  cpu time      6.5418: real time      7.0202
     EDDAV:  cpu time    151.6994: real time    158.9385
       DOS:  cpu time      0.0032: real time      0.0032
    CHARGE:  cpu time     20.2269: real time     21.1374
    MIXING:  cpu time      0.7105: real time      0.7415
    --------------------------------------------
      LOOP:  cpu time    534.8381: real time    560.0110

 eigenvalue-minimisations  :   528
 total energy-change (2. order) :-0.3241151E-03  (-0.4350287E-04)
 number of electron     425.9999997 magnetization 
 augmentation part      -41.6904283 magnetization 

 Broyden mixing:
  rms(total) = 0.55596E-02    rms(broyden)= 0.55596E-02
  rms(prec ) = 0.69907E-02
  weight for this iteration     100.00

 eigenvalues of (default mixing * dielectric matrix)
  average eigenvalue GAMMA=   0.9179
  4.5492  2.7773  2.0435  2.0435  1.3244  1.3244  1.0892  1.0559  0.7373  0.7373
  0.6722  0.5670  0.5670  0.5448  0.3803  0.3803  0.1331  0.3077  0.3077  0.2825
  0.2825  0.2571  0.1751  0.2087  0.1994

 Free energy of the ion-electron system (eV)
  ---------------------------------------------------
  alpha Z        PSCENC =        86.09775193
  Ewald energy   TEWEN  =     80195.10497160
  -Hartree energ DENC   =    -94618.17399172
  -exchange      EXHF   =         0.00000000
  -V(xc)+E(xc)   XCENC  =     -1035.38778443
  PAW double counting   =     30178.47762456   -28212.94235402
  entropy T*S    EENTRO =        -0.42371665
  eigenvalues    EBANDS =     -4172.46679095
  atomic energy  EATOM  =     17252.96405040
  Solvation  Ediel_sol  =         0.00000000
  ---------------------------------------------------
  free energy    TOTEN  =      -326.75023930 eV

  energy without entropy =     -326.32652265  energy(sigma->0) =     -326.53838097


--------------------------------------------------------------------------------------------------------




--------------------------------------- Iteration      1(  31)  ---------------------------------------


    POTLOK:  cpu time    351.6728: real time    370.4516
    SETDIJ:  cpu time      6.5899: real time      6.9283
     EDDAV:  cpu time    158.6998: real time    166.1773
       DOS:  cpu time      0.0043: real time      0.0043
    CHARGE:  cpu time     19.8387: real time     20.9411
    MIXING:  cpu time      0.8171: real time      0.8636
    --------------------------------------------
      LOOP:  cpu time    537.6226: real time    565.3662

 eigenvalue-minimisations  :   560
 total energy-change (2. order) :-0.4910453E-03  (-0.3095786E-04)
 number of electron     425.9999997 magnetization 
 augmentation part      -41.6855105 magnetization 

 Broyden mixing:
  rms(total) = 0.17941E-02    rms(broyden)= 0.17940E-02
  rms(prec ) = 0.22888E-02
  weight for this iteration     100.00

 eigenvalues of (default mixing * dielectric matrix)
  average eigenvalue GAMMA=   0.9703
  5.4747  2.7891  2.2224  2.2224  1.4119  1.4119  1.1180  1.1180  0.7410  0.7410
  0.6587  0.6587  0.6135  0.5606  0.5606  0.4043  0.3718  0.1331  0.3009  0.3009
  0.2863  0.2863  0.2572  0.1751  0.2087  0.1994

 Free energy of the ion-electron system (eV)
  ---------------------------------------------------
  alpha Z        PSCENC =        86.09775193
  Ewald energy   TEWEN  =     80195.10497160
  -Hartree energ DENC   =    -94619.21872795
  -exchange      EXHF   =         0.00000000
  -V(xc)+E(xc)   XCENC  =     -1035.38018951
  PAW double counting   =     30178.09780543   -28212.56232693
  entropy T*S    EENTRO =        -0.42602234
  eigenvalues    EBANDS =     -4171.42804296
  atomic energy  EATOM  =     17252.96405040
  Solvation  Ediel_sol  =         0.00000000
  ---------------------------------------------------
  free energy    TOTEN  =      -326.75073035 eV

  energy without entropy =     -326.32470800  energy(sigma->0) =     -326.53771918


--------------------------------------------------------------------------------------------------------




--------------------------------------- Iteration      1(  32)  ---------------------------------------


    POTLOK:  cpu time    352.3468: real time    370.7858
    SETDIJ:  cpu time      6.6133: real time      6.9934
     EDDAV:  cpu time    146.5421: real time    153.7453
       DOS:  cpu time      0.0004: real time      0.0004
    CHARGE:  cpu time     19.6433: real time     20.5960
    MIXING:  cpu time      0.7864: real time      0.8225
    --------------------------------------------
      LOOP:  cpu time    525.9323: real time    552.9435

 eigenvalue-minimisations  :   504
 total energy-change (2. order) :-0.5437914E-03  (-0.1888494E-04)
 number of electron     425.9999997 magnetization 
 augmentation part      -41.6827655 magnetization 

 Broyden mixing:
  rms(total) = 0.11042E-02    rms(broyden)= 0.11041E-02
  rms(prec ) = 0.15771E-02
  weight for this iteration     100.00

 eigenvalues of (default mixing * dielectric matrix)
  average eigenvalue GAMMA=   0.9899
  6.0134  2.8909  2.0930  2.0930  2.0056  1.2790  1.2790  0.9366  0.9366  0.7043
  0.7043  0.5692  0.5692  0.5783  0.5770  0.5770  0.3870  0.3870  0.1331  0.3027
  0.3027  0.2849  0.2849  0.2570  0.1751  0.2087  0.1994

 Free energy of the ion-electron system (eV)
  ---------------------------------------------------
  alpha Z        PSCENC =        86.09775193
  Ewald energy   TEWEN  =     80195.10497160
  -Hartree energ DENC   =    -94620.11042727
  -exchange      EXHF   =         0.00000000
  -V(xc)+E(xc)   XCENC  =     -1035.37473016
  PAW double counting   =     30177.70457339   -28212.16903706
  entropy T*S    EENTRO =        -0.42714989
  eigenvalues    EBANDS =     -4170.54127707
  atomic energy  EATOM  =     17252.96405040
  Solvation  Ediel_sol  =         0.00000000
  ---------------------------------------------------
  free energy    TOTEN  =      -326.75127414 eV

  energy without entropy =     -326.32412425  energy(sigma->0) =     -326.53769919


--------------------------------------------------------------------------------------------------------




--------------------------------------- Iteration      1(  33)  ---------------------------------------


    POTLOK:  cpu time    352.8775: real time    370.4446
    SETDIJ:  cpu time      6.6169: real time      7.0152
     EDDAV:  cpu time    135.6839: real time    144.2521
       DOS:  cpu time      0.0068: real time      0.0068
    CHARGE:  cpu time     20.2210: real time     21.5286
    MIXING:  cpu time      0.8185: real time      0.8688
    --------------------------------------------
      LOOP:  cpu time    516.2245: real time    544.1161

 eigenvalue-minimisations  :   464
 total energy-change (2. order) :-0.2646602E-03  (-0.4116175E-05)
 number of electron     425.9999997 magnetization 
 augmentation part      -41.6845964 magnetization 

 Broyden mixing:
  rms(total) = 0.11307E-02    rms(broyden)= 0.11307E-02
  rms(prec ) = 0.13825E-02
  weight for this iteration     100.00

 eigenvalues of (default mixing * dielectric matrix)
  average eigenvalue GAMMA=   0.9993
  6.2782  2.9075  2.1883  2.0969  2.0969  1.3165  1.3165  0.9539  0.9539  0.7369
  0.7369  0.6175  0.6175  0.5520  0.5520  0.5878  0.5490  0.3872  0.3872  0.1331
  0.3035  0.3035  0.2840  0.2840  0.2571  0.1751  0.2087  0.1994

 Free energy of the ion-electron system (eV)
  ---------------------------------------------------
  alpha Z        PSCENC =        86.09775193
  Ewald energy   TEWEN  =     80195.10497160
  -Hartree energ DENC   =    -94620.35364854
  -exchange      EXHF   =         0.00000000
  -V(xc)+E(xc)   XCENC  =     -1035.37469113
  PAW double counting   =     30177.68605650   -28212.15047835
  entropy T*S    EENTRO =        -0.42626872
  eigenvalues    EBANDS =     -4170.29928248
  atomic energy  EATOM  =     17252.96405040
  Solvation  Ediel_sol  =         0.00000000
  ---------------------------------------------------
  free energy    TOTEN  =      -326.75153880 eV

  energy without entropy =     -326.32527008  energy(sigma->0) =     -326.53840444


--------------------------------------------------------------------------------------------------------




--------------------------------------- Iteration      1(  34)  ---------------------------------------


    POTLOK:  cpu time    348.8654: real time    369.3233
    SETDIJ:  cpu time      6.5904: real time      7.0654
     EDDAV:  cpu time    119.3075: real time    126.1872
       DOS:  cpu time      0.0028: real time      0.0028
    CHARGE:  cpu time     19.9490: real time     21.0131
    MIXING:  cpu time      0.7743: real time      0.8215
    --------------------------------------------
      LOOP:  cpu time    495.4895: real time    524.4132

 eigenvalue-minimisations  :   384
 total energy-change (2. order) :-0.2411807E-03  (-0.1096272E-05)
 number of electron     425.9999997 magnetization 
 augmentation part      -41.6848032 magnetization 

 Broyden mixing:
  rms(total) = 0.11705E-02    rms(broyden)= 0.11705E-02
  rms(prec ) = 0.14191E-02
  weight for this iteration     100.00

 eigenvalues of (default mixing * dielectric matrix)
  average eigenvalue GAMMA=   1.0286
  6.7496  2.9659  2.2812  1.9616  1.9616  1.4268  1.4268  1.1278  1.1278  0.8200
  0.8200  0.6708  0.6708  0.6191  0.6191  0.5725  0.5725  0.5168  0.3850  0.3850
  0.1331  0.3030  0.3030  0.2842  0.2842  0.2570  0.1751  0.2087  0.1994

 Free energy of the ion-electron system (eV)
  ---------------------------------------------------
  alpha Z        PSCENC =        86.09775193
  Ewald energy   TEWEN  =     80195.10497160
  -Hartree energ DENC   =    -94620.52491041
  -exchange      EXHF   =         0.00000000
  -V(xc)+E(xc)   XCENC  =     -1035.37408709
  PAW double counting   =     30177.90190051   -28212.36640737
  entropy T*S    EENTRO =        -0.42619055
  eigenvalues    EBANDS =     -4170.12885899
  atomic energy  EATOM  =     17252.96405040
  Solvation  Ediel_sol  =         0.00000000
  ---------------------------------------------------
  free energy    TOTEN  =      -326.75177998 eV

  energy without entropy =     -326.32558943  energy(sigma->0) =     -326.53868470


--------------------------------------------------------------------------------------------------------




--------------------------------------- Iteration      1(  35)  ---------------------------------------


    POTLOK:  cpu time    347.9748: real time    366.3254
    SETDIJ:  cpu time      7.1748: real time      7.4138
     EDDAV:  cpu time    128.1767: real time    135.3433
       DOS:  cpu time      0.0006: real time      0.0006
    CHARGE:  cpu time     19.9487: real time     20.8931
    MIXING:  cpu time      0.8108: real time      0.8559
    --------------------------------------------
      LOOP:  cpu time    504.0864: real time    530.8321

 eigenvalue-minimisations  :   424
 total energy-change (2. order) :-0.3129052E-03  (-0.1731062E-05)
 number of electron     425.9999997 magnetization 
 augmentation part      -41.6829893 magnetization 

 Broyden mixing:
  rms(total) = 0.37165E-03    rms(broyden)= 0.37157E-03
  rms(prec ) = 0.46042E-03
  weight for this iteration     100.00

 eigenvalues of (default mixing * dielectric matrix)
  average eigenvalue GAMMA=   1.0835
  7.5242  3.2635  2.4503  2.4503  1.8088  1.8088  1.3234  1.3234  0.9604  0.9604
  0.7842  0.7842  0.6610  0.6610  0.6485  0.5708  0.5708  0.5163  0.5163  0.3857
  0.3857  0.1331  0.3030  0.3030  0.2842  0.2842  0.2570  0.1751  0.2087  0.1994

 Free energy of the ion-electron system (eV)
  ---------------------------------------------------
  alpha Z        PSCENC =        86.09775193
  Ewald energy   TEWEN  =     80195.10497160
  -Hartree energ DENC   =    -94620.75280326
  -exchange      EXHF   =         0.00000000
  -V(xc)+E(xc)   XCENC  =     -1035.37263549
  PAW double counting   =     30178.05862186   -28212.52335321
  entropy T*S    EENTRO =        -0.42700446
  eigenvalues    EBANDS =     -4169.90169224
  atomic energy  EATOM  =     17252.96405040
  Solvation  Ediel_sol  =         0.00000000
  ---------------------------------------------------
  free energy    TOTEN  =      -326.75209288 eV

  energy without entropy =     -326.32508842  energy(sigma->0) =     -326.53859065


--------------------------------------------------------------------------------------------------------




--------------------------------------- Iteration      1(  36)  ---------------------------------------


    POTLOK:  cpu time    352.3520: real time    370.7036
    SETDIJ:  cpu time      6.6710: real time      7.0944
     EDDAV:  cpu time    125.4117: real time    132.9395
       DOS:  cpu time      0.0004: real time      0.0004
    CHARGE:  cpu time     19.8108: real time     20.9789
    MIXING:  cpu time      0.8116: real time      0.8489
    --------------------------------------------
      LOOP:  cpu time    505.0575: real time    532.5657

 eigenvalue-minimisations  :   416
 total energy-change (2. order) :-0.2627351E-03  (-0.1308684E-05)
 number of electron     425.9999997 magnetization 
 augmentation part      -41.6823914 magnetization 

 Broyden mixing:
  rms(total) = 0.69950E-03    rms(broyden)= 0.69948E-03
  rms(prec ) = 0.85764E-03
  weight for this iteration     100.00

 eigenvalues of (default mixing * dielectric matrix)
  average eigenvalue GAMMA=   1.0837
  7.6915  3.3769  2.5483  2.5483  1.8768  1.8768  1.3346  1.3346  0.9739  0.9739
  0.7940  0.7940  0.6530  0.6530  0.6141  0.5833  0.5833  0.5335  0.5335  0.4029
  0.3841  0.3841  0.1331  0.3030  0.3030  0.2842  0.2842  0.2570  0.1751  0.2087
  0.1994

 Free energy of the ion-electron system (eV)
  ---------------------------------------------------
  alpha Z        PSCENC =        86.09775193
  Ewald energy   TEWEN  =     80195.10497160
  -Hartree energ DENC   =    -94620.90016841
  -exchange      EXHF   =         0.00000000
  -V(xc)+E(xc)   XCENC  =     -1035.37233361
  PAW double counting   =     30177.99432453   -28212.45907376
  entropy T*S    EENTRO =        -0.42722611
  eigenvalues    EBANDS =     -4169.75465219
  atomic energy  EATOM  =     17252.96405040
  Solvation  Ediel_sol  =         0.00000000
  ---------------------------------------------------
  free energy    TOTEN  =      -326.75235562 eV

  energy without entropy =     -326.32512951  energy(sigma->0) =     -326.53874257


--------------------------------------------------------------------------------------------------------




--------------------------------------- Iteration      1(  37)  ---------------------------------------


    POTLOK:  cpu time    352.2795: real time    369.7664
    SETDIJ:  cpu time      6.7582: real time      7.0172
     EDDAV:  cpu time    119.6155: real time    124.9382
       DOS:  cpu time      0.0038: real time      0.0038
    CHARGE:  cpu time     20.0739: real time     21.1646
    MIXING:  cpu time      0.8780: real time      0.9173
    --------------------------------------------
      LOOP:  cpu time    499.6089: real time    523.8074

 eigenvalue-minimisations  :   376
 total energy-change (2. order) :-0.1079442E-03  ( 0.8351646E-07)
 number of electron     425.9999997 magnetization 
 augmentation part      -41.6825351 magnetization 

 Broyden mixing:
  rms(total) = 0.56105E-03    rms(broyden)= 0.56102E-03
  rms(prec ) = 0.69502E-03
  weight for this iteration     100.00

 eigenvalues of (default mixing * dielectric matrix)
  average eigenvalue GAMMA=   1.0933
  7.8105  3.6425  2.6375  2.6375  1.9511  1.9511  1.3409  1.3409  0.9938  0.9938
  0.8084  0.8084  0.6748  0.6748  0.6339  0.6339  0.5612  0.5612  0.5725  0.4897
  0.3849  0.3849  0.1331  0.3495  0.3030  0.3030  0.2842  0.2842  0.2570  0.1751
  0.2087  0.1994

 Free energy of the ion-electron system (eV)
  ---------------------------------------------------
  alpha Z        PSCENC =        86.09775193
  Ewald energy   TEWEN  =     80195.10497160
  -Hartree energ DENC   =    -94620.91823305
  -exchange      EXHF   =         0.00000000
  -V(xc)+E(xc)   XCENC  =     -1035.37259822
  PAW double counting   =     30178.01612587   -28212.48089464
  entropy T*S    EENTRO =        -0.42714922
  eigenvalues    EBANDS =     -4169.73648821
  atomic energy  EATOM  =     17252.96405040
  Solvation  Ediel_sol  =         0.00000000
  ---------------------------------------------------
  free energy    TOTEN  =      -326.75246356 eV

  energy without entropy =     -326.32531434  energy(sigma->0) =     -326.53888895


--------------------------------------------------------------------------------------------------------




--------------------------------------- Iteration      1(  38)  ---------------------------------------


