<?xml version="1.0" encoding="ISO-8859-1"?>
<modeling>
 <generator>
  <i name="program" type="string">vasp </i>
  <i name="version" type="string">6.5.0  </i>
  <i name="subversion" type="string">16Dec24 (build Mar 16 2025 21:55:21) complex                          parallel </i>
  <i name="platform" type="string">LinuxIFC </i>
  <i name="date" type="string">2025 12 08 </i>
  <i name="time" type="string">15:02:11 </i>
 </generator>
 <incar>
  <i type="string" name="SYSTEM">WSe2_QD_relax_optB86b-vdW</i>
  <i type="int" name="ISTART">     0</i>
  <i type="string" name="PREC">Accurate</i>
  <i type="string" name="ALGO">Normal</i>
  <i type="logical" name="ADDGRID"> T  </i>
  <i type="int" name="ISPIN">     1</i>
  <i type="int" name="ICHARG">     2</i>
  <i type="int" name="NELM">   120</i>
  <i type="int" name="NELMIN">     4</i>
  <i type="int" name="IBRION">     2</i>
  <i name="EDIFF">      0.00001000</i>
  <i name="EDIFFG">     -0.02000000</i>
  <i type="int" name="NSW">   150</i>
  <i type="int" name="ISIF">     2</i>
  <i type="int" name="ISYM">     0</i>
  <i name="ENCUT">    500.00000000</i>
  <i name="POTIM">      0.50000000</i>
  <i type="string" name="LREAL">Auto</i>
  <i type="int" name="ISMEAR">     0</i>
  <i name="SIGMA">      0.10000000</i>
  <i type="int" name="LMAXMIX">     4</i>
  <i type="logical" name="LWAVE"> F  </i>
  <i type="logical" name="LCHARG"> F  </i>
  <i type="logical" name="LASPH"> T  </i>
  <i type="string" name="GGA">MK</i>
  <i type="logical" name="LUSE_VDW"> T  </i>
  <i name="AGGAC">      0.00000000</i>
  <i name="PARAM1">      0.12340000</i>
  <i name="PARAM2">      1.00000000</i>
  <i type="int" name="IVDW">     0</i>
 </incar>
 <primitive_cell>
  <structure name="primitive_cell" >
   <crystal>
    <varray name="basis" >
     <v>      30.00000000       0.00000000       0.00000000 </v>
     <v>       0.00000000      30.00000000       0.00000000 </v>
     <v>       0.00000000       0.00000000      30.00000000 </v>
    </varray>
    <i name="volume">  27000.00000000 </i>
    <varray name="rec_basis" >
     <v>       0.03333333       0.00000000       0.00000000 </v>
     <v>       0.00000000       0.03333333       0.00000000 </v>
     <v>       0.00000000       0.00000000       0.03333333 </v>
    </varray>
   </crystal>
   <varray name="positions" >
    <v>       0.21666600       0.26399300       0.21453500 </v>
    <v>       0.32750401       0.26399201       0.21453500 </v>
    <v>       0.27208501       0.35997900       0.21453500 </v>
    <v>       0.43834099       0.26399100       0.21453500 </v>
    <v>       0.38292199       0.35997799       0.21453500 </v>
    <v>       0.32750100       0.45596701       0.21453500 </v>
    <v>       0.54916900       0.26399800       0.21453500 </v>
    <v>       0.49375001       0.35998499       0.21453500 </v>
    <v>       0.43832901       0.45597300       0.21453500 </v>
    <v>       0.38292101       0.55195600       0.21453500 </v>
    <v>       0.66000700       0.26399601       0.21453500 </v>
    <v>       0.60458797       0.35998300       0.21453500 </v>
    <v>       0.54916799       0.45597199       0.21453500 </v>
    <v>       0.49375901       0.55195397       0.21453500 </v>
    <v>       0.43834001       0.64794099       0.21453500 </v>
    <v>       0.77084398       0.26399601       0.21453500 </v>
    <v>       0.71542501       0.35998300       0.21453500 </v>
    <v>       0.66000402       0.45597100       0.21453500 </v>
    <v>       0.60459602       0.55195397       0.21453500 </v>
    <v>       0.54917699       0.64794099       0.21453500 </v>
    <v>       0.49375701       0.74392903       0.21453500 </v>
    <v>       0.27208799       0.23200300       0.15847699 </v>
    <v>       0.21667001       0.32798099       0.15848000 </v>
    <v>       0.38292399       0.23200400       0.15846901 </v>
    <v>       0.32750601       0.32798201       0.15847200 </v>
    <v>       0.27208900       0.42396900       0.15848000 </v>
    <v>       0.49375200       0.23199999       0.15846699 </v>
    <v>       0.43833399       0.32797798       0.15846901 </v>
    <v>       0.38291699       0.42396501       0.15847699 </v>
    <v>       0.32750401       0.51995802       0.15846699 </v>
    <v>       0.60459000       0.23200700       0.15847699 </v>
    <v>       0.54917300       0.32798499       0.15848000 </v>
    <v>       0.49375600       0.42397201       0.15848801 </v>
    <v>       0.43834299       0.51996499       0.15847699 </v>
    <v>       0.38292500       0.61594301       0.15848000 </v>
    <v>       0.71542603       0.23200799       0.15846901 </v>
    <v>       0.66000801       0.32798600       0.15847200 </v>
    <v>       0.60459203       0.42397401       0.15848000 </v>
    <v>       0.54917902       0.51996601       0.15846901 </v>
    <v>       0.49376100       0.61594498       0.15847200 </v>
    <v>       0.43834400       0.71193200       0.15848000 </v>
    <v>       0.77083701       0.32798201       0.15846901 </v>
    <v>       0.71542001       0.42396900       0.15847699 </v>
    <v>       0.66000700       0.51996201       0.15846699 </v>
    <v>       0.60458898       0.61593998       0.15846901 </v>
    <v>       0.54917198       0.71192801       0.15847699 </v>
    <v>       0.27208799       0.23200300       0.27059299 </v>
    <v>       0.21667001       0.32798099       0.27059001 </v>
    <v>       0.38292399       0.23200400       0.27060100 </v>
    <v>       0.32750601       0.32798201       0.27059799 </v>
    <v>       0.27208900       0.42396900       0.27059001 </v>
    <v>       0.49375200       0.23199999       0.27060401 </v>
    <v>       0.43833399       0.32797798       0.27060100 </v>
    <v>       0.38291699       0.42396501       0.27059299 </v>
    <v>       0.32750401       0.51995802       0.27060401 </v>
    <v>       0.60459000       0.23200700       0.27059299 </v>
    <v>       0.54917300       0.32798499       0.27059001 </v>
    <v>       0.49375600       0.42397201       0.27058300 </v>
    <v>       0.43834299       0.51996499       0.27059299 </v>
    <v>       0.38292500       0.61594301       0.27059001 </v>
    <v>       0.71542603       0.23200799       0.27060100 </v>
    <v>       0.66000801       0.32798600       0.27059799 </v>
    <v>       0.60459203       0.42397401       0.27059001 </v>
    <v>       0.54917902       0.51996601       0.27060100 </v>
    <v>       0.49376100       0.61594498       0.27059799 </v>
    <v>       0.43834400       0.71193200       0.27059001 </v>
    <v>       0.77083701       0.32798201       0.27060100 </v>
    <v>       0.71542001       0.42396900       0.27059299 </v>
    <v>       0.66000700       0.51996201       0.27060401 </v>
    <v>       0.60458898       0.61593998       0.27060100 </v>
    <v>       0.54917198       0.71192801       0.27059299 </v>
   </varray>
  </structure>
  <varray name="primitive_index" >
   <v type="int" >        1 </v>
   <v type="int" >        2 </v>
   <v type="int" >        3 </v>
   <v type="int" >        4 </v>
   <v type="int" >        5 </v>
   <v type="int" >        6 </v>
   <v type="int" >        7 </v>
   <v type="int" >        8 </v>
   <v type="int" >        9 </v>
   <v type="int" >       10 </v>
   <v type="int" >       11 </v>
   <v type="int" >       12 </v>
   <v type="int" >       13 </v>
   <v type="int" >       14 </v>
   <v type="int" >       15 </v>
   <v type="int" >       16 </v>
   <v type="int" >       17 </v>
   <v type="int" >       18 </v>
   <v type="int" >       19 </v>
   <v type="int" >       20 </v>
   <v type="int" >       21 </v>
   <v type="int" >       22 </v>
   <v type="int" >       23 </v>
   <v type="int" >       24 </v>
   <v type="int" >       25 </v>
   <v type="int" >       26 </v>
   <v type="int" >       27 </v>
   <v type="int" >       28 </v>
   <v type="int" >       29 </v>
   <v type="int" >       30 </v>
   <v type="int" >       31 </v>
   <v type="int" >       32 </v>
   <v type="int" >       33 </v>
   <v type="int" >       34 </v>
   <v type="int" >       35 </v>
   <v type="int" >       36 </v>
   <v type="int" >       37 </v>
   <v type="int" >       38 </v>
   <v type="int" >       39 </v>
   <v type="int" >       40 </v>
   <v type="int" >       41 </v>
   <v type="int" >       42 </v>
   <v type="int" >       43 </v>
   <v type="int" >       44 </v>
   <v type="int" >       45 </v>
   <v type="int" >       46 </v>
   <v type="int" >       47 </v>
   <v type="int" >       48 </v>
   <v type="int" >       49 </v>
   <v type="int" >       50 </v>
   <v type="int" >       51 </v>
   <v type="int" >       52 </v>
   <v type="int" >       53 </v>
   <v type="int" >       54 </v>
   <v type="int" >       55 </v>
   <v type="int" >       56 </v>
   <v type="int" >       57 </v>
   <v type="int" >       58 </v>
   <v type="int" >       59 </v>
   <v type="int" >       60 </v>
   <v type="int" >       61 </v>
   <v type="int" >       62 </v>
   <v type="int" >       63 </v>
   <v type="int" >       64 </v>
   <v type="int" >       65 </v>
   <v type="int" >       66 </v>
   <v type="int" >       67 </v>
   <v type="int" >       68 </v>
   <v type="int" >       69 </v>
   <v type="int" >       70 </v>
   <v type="int" >       71 </v>
  </varray>
 </primitive_cell>
 <kpoints>
  <generation param="Gamma">
   <v type="int" name="divisions">       1        1        1 </v>
   <v name="usershift">      0.00000000       0.00000000       0.00000000 </v>
   <v name="genvec1">      1.00000000       0.00000000       0.00000000 </v>
   <v name="genvec2">      0.00000000       1.00000000       0.00000000 </v>
   <v name="genvec3">      0.00000000       0.00000000       1.00000000 </v>
   <v name="shift">      0.00000000       0.00000000       0.00000000 </v>
  </generation>
  <varray name="kpointlist" >
   <v>       0.00000000       0.00000000       0.00000000 </v>
  </varray>
  <varray name="weights" >
   <v>       1.00000000 </v>
  </varray>
 </kpoints>
 <parameters>
  <separator name="general" >
   <i type="string" name="SYSTEM">WSe2_QD_relax_optB86b-vdW</i>
   <i type="logical" name="LCOMPAT"> F  </i>
  </separator>
  <separator name="electronic" >
   <i type="string" name="PREC">accura</i>
   <i name="ENMAX">    500.00000000</i>
   <i name="ENAUG">    446.84200000</i>
   <i name="EDIFF">      0.00001000</i>
   <i type="int" name="IALGO">    38</i>
   <i type="int" name="IWAVPR">    11</i>
   <i type="int" name="NBANDS">   256</i>
   <i type="int" name="NBANDSLOW">    -1</i>
   <i type="int" name="NBANDSHIGH">    -1</i>
   <i name="NELECT">    426.00000000</i>
   <i type="int" name="TURBO">     0</i>
   <i type="int" name="IRESTART">     0</i>
   <i type="int" name="NREBOOT">     0</i>
   <i type="int" name="NMIN">     0</i>
   <i name="EREF">      0.00000000</i>
   <separator name="electronic smearing" >
    <i type="int" name="ISMEAR">     0</i>
    <i name="SIGMA">      0.10000000</i>
    <i name="KSPACING">      0.50000000</i>
    <i type="logical" name="KGAMMA"> T  </i>
    <i type="logical" name="KBLOWUP"> T  </i>
   </separator>
   <separator name="electronic projectors" >
    <i type="logical" name="LREAL"> T  </i>
    <v name="ROPT">     -0.00025000     -0.00025000</v>
    <i type="int" name="LMAXPAW">  -100</i>
    <i type="int" name="LMAXMIX">     4</i>
    <i type="logical" name="NLSPLINE"> F  </i>
   </separator>
   <separator name="electronic startup" >
    <i type="int" name="ISTART">     0</i>
    <i type="int" name="ICHARG">     2</i>
    <i type="int" name="INIWAV">     1</i>
   </separator>
   <separator name="electronic spin" >
    <i type="int" name="ISPIN">     1</i>
    <i type="logical" name="LNONCOLLINEAR"> F  </i>
    <v name="MAGMOM">      1.00000000      1.00000000      1.00000000      1.00000000      1.00000000      1.00000000      1.00000000      1.00000000      1.00000000      1.00000000      1.00000000      1.00000000      1.00000000      1.00000000      1.00000000      1.00000000      1.00000000      1.00000000      1.00000000      1.00000000
      1.00000000      1.00000000      1.00000000      1.00000000      1.00000000      1.00000000      1.00000000      1.00000000      1.00000000      1.00000000      1.00000000      1.00000000      1.00000000      1.00000000      1.00000000      1.00000000      1.00000000      1.00000000      1.00000000      1.00000000
      1.00000000      1.00000000      1.00000000      1.00000000      1.00000000      1.00000000      1.00000000      1.00000000      1.00000000      1.00000000      1.00000000      1.00000000      1.00000000      1.00000000      1.00000000      1.00000000      1.00000000      1.00000000      1.00000000      1.00000000
      1.00000000      1.00000000      1.00000000      1.00000000      1.00000000      1.00000000      1.00000000      1.00000000      1.00000000      1.00000000      1.00000000</v>
    <i name="NUPDOWN">     -1.00000000</i>
    <i type="logical" name="LSORBIT"> F  </i>
    <v name="SAXIS">      0.00000000      0.00000000      1.00000000</v>
    <i type="logical" name="LSPIRAL"> F  </i>
    <v name="QSPIRAL">      0.00000000      0.00000000      0.00000000</v>
    <i type="logical" name="LZEROZ"> F  </i>
   </separator>
   <separator name="electronic exchange-correlation" >
    <i type="logical" name="LASPH"> T  </i>
   </separator>
   <separator name="electronic convergence" >
    <i type="int" name="NELM">   120</i>
    <i type="int" name="NELMDL">    -5</i>
    <i type="int" name="NELMIN">     4</i>
    <i name="ENINI">    500.00000000</i>
    <separator name="electronic convergence detail" >
     <i type="logical" name="LDIAG"> T  </i>
     <i type="logical" name="LSUBROT"> F  </i>
     <i name="WEIMIN">      0.00100000</i>
     <i name="EBREAK">      0.00000001</i>
     <i name="DEPER">      0.30000000</i>
     <i type="int" name="NRMM">     4</i>
     <i name="TIME">      0.40000000</i>
    </separator>
   </separator>
   <separator name="electronic mixer" >
    <i name="AMIX">      0.40000000</i>
    <i name="BMIX">      1.00000000</i>
    <i name="AMIN">      0.10000000</i>
    <i name="AMIX_MAG">      1.60000000</i>
    <i name="BMIX_MAG">      1.00000000</i>
    <separator name="electronic mixer details" >
     <i type="int" name="IMIX">     4</i>
     <i type="logical" name="MIXFIRST"> F  </i>
     <i type="int" name="MAXMIX">   -45</i>
     <i name="WC">    100.00000000</i>
     <i type="int" name="INIMIX">     1</i>
     <i type="int" name="MIXPRE">     1</i>
     <i type="int" name="MREMOVE">     5</i>
    </separator>
   </separator>
   <separator name="electronic dipolcorrection" >
    <i type="logical" name="LDIPOL"> F  </i>
    <i type="logical" name="LMONO"> F  </i>
    <i type="int" name="IDIPOL">     0</i>
    <i name="EPSILON">      1.00000000</i>
    <v name="DIPOL">   -100.00000000   -100.00000000   -100.00000000</v>
    <i name="EFIELD">      0.00000000</i>
    <i type="logical" name="LVACPOTAV"> F  </i>
   </separator>
  </separator>
  <separator name="grids" >
   <i type="int" name="NGX">   224</i>
   <i type="int" name="NGY">   224</i>
   <i type="int" name="NGZ">   224</i>
   <i type="int" name="NGXF">   448</i>
   <i type="int" name="NGYF">   448</i>
   <i type="int" name="NGZF">   448</i>
   <i type="logical" name="ADDGRID"> T  </i>
  </separator>
  <separator name="ionic" >
   <i type="int" name="NSW">   150</i>
   <i type="int" name="IBRION">     2</i>
   <i type="int" name="MDALGO">     0</i>
   <i type="int" name="ISIF">     2</i>
   <i name="PSTRESS">      0.00000000</i>
   <i name="EDIFFG">     -0.02000000</i>
   <i type="int" name="NFREE">     1</i>
   <i name="POTIM">      0.50000000</i>
   <i name="SMASS">     -3.00000000</i>
   <i name="SCALEE">      1.00000000</i>
  </separator>
  <separator name="ionic md" >
   <i name="TEBEG">      0.00010000</i>
   <i name="TEEND">      0.00010000</i>
   <i type="int" name="NBLOCK">     1</i>
   <i type="int" name="KBLOCK">   150</i>
   <i type="int" name="NPACO">   256</i>
   <i name="APACO">     10.00000000</i>
  </separator>
  <separator name="symmetry" >
   <i type="int" name="ISYM">     0</i>
   <i name="SYMPREC">      0.00001000</i>
  </separator>
  <separator name="dos" >
   <i type="int" name="LORBIT">     0</i>
   <v name="RWIGS">     -1.00000000     -1.00000000</v>
   <i type="int" name="NEDOS">   301</i>
   <i name="EMIN">     10.00000000</i>
   <i name="EMAX">    -10.00000000</i>
   <i name="EFERMI">      0.00000000</i>
  </separator>
  <separator name="writing" >
   <i type="int" name="NWRITE">     2</i>
   <i type="logical" name="LWAVE"> F  </i>
   <i type="logical" name="LDOWNSAMPLE"> F  </i>
   <i type="logical" name="LCHARG"> F  </i>
   <i type="logical" name="LPARD"> F  </i>
   <i type="logical" name="LVTOT"> F  </i>
   <i type="logical" name="LVHAR"> F  </i>
   <i type="logical" name="LELF"> F  </i>
   <i type="logical" name="LOPTICS"> F  </i>
   <v name="STM">      0.00000000      0.00000000      0.00000000      0.00000000      0.00000000      0.00000000      0.00000000</v>
  </separator>
  <separator name="performance" >
   <i type="int" name="NPAR">     8</i>
   <i type="int" name="NSIM">     4</i>
   <i type="int" name="NBLK">    -1</i>
   <i type="logical" name="LPLANE"> T  </i>
   <i type="logical" name="LSCALAPACK"> T  </i>
   <i type="logical" name="LSCAAWARE"> F  </i>
   <i type="logical" name="LSCALU"> F  </i>
   <i type="logical" name="LASYNC"> F  </i>
   <i type="logical" name="LORBITALREAL"> F  </i>
  </separator>
  <separator name="miscellaneous" >
   <i type="int" name="IDIOT">     3</i>
   <i type="int" name="PHON_NSTRUCT">    -1</i>
   <i type="logical" name="LMUSIC"> F  </i>
   <v name="POMASS">    183.85000000     78.96000000</v>
   <v name="DARWINR">      0.00000000      0.00000000</v>
   <v name="DARWINV">      1.00000000      1.00000000</v>
   <i type="logical" name="LCORR"> T  </i>
  </separator>
  <i type="logical" name="GGA_COMPAT"> T  </i>
  <i type="logical" name="LBERRY"> F  </i>
  <i type="int" name="ICORELEVEL">     0</i>
  <i type="logical" name="LDAU"> F  </i>
  <i type="int" name="I_CONSTRAINED_M">     0</i>
  <separator name="electronic exchange-correlation" >
   <i type="string" name="GGA    ">MK</i>
   <i type="string" name="XC_C">1</i>
   <i type="int" name="VOSKOWN">     0</i>
   <i type="logical" name="LHFCALC"> F  </i>
   <i type="string" name="PRECFOCK"></i>
   <i type="logical" name="LSYMGRAD"> F  </i>
   <i type="logical" name="LHFONE"> F  </i>
   <i type="logical" name="LRHFCALC"> F  </i>
   <i type="logical" name="LTHOMAS"> F  </i>
   <i type="logical" name="LMODELHF"> F  </i>
   <i type="logical" name="LFOCKACE"> F  </i>
   <i name="ENCUT4O">     -1.00000000</i>
   <i type="int" name="EXXOEP">     0</i>
   <i type="int" name="FOURORBIT">     0</i>
   <i name="AEXX">      0.00000000</i>
   <i name="HFALPHA">      0.00000000</i>
   <i name="MCALPHA">      0.00000000</i>
   <i name="ALDAX">      1.00000000</i>
   <i name="AGGAX">      1.00000000</i>
   <i name="AMGGAX">      1.00000000</i>
   <i name="ALDAC">      1.00000000</i>
   <i name="AGGAC">      0.00000000</i>
   <i name="AMGGAC">      1.00000000</i>
   <i type="int" name="NKREDX">     1</i>
   <i type="int" name="NKREDY">     1</i>
   <i type="int" name="NKREDZ">     1</i>
   <i type="logical" name="SHIFTRED"> F  </i>
   <i type="logical" name="ODDONLY"> F  </i>
   <i type="logical" name="EVENONLY"> F  </i>
   <i type="int" name="LMAXFOCK">     0</i>
   <i type="int" name="NMAXFOCKAE">     0</i>
   <i type="logical" name="LFOCKAEDFT"> F  </i>
   <i name="HFSCREEN">      0.00000000</i>
   <i name="HFSCREENC">      0.00000000</i>
   <i type="int" name="NBANDSGWLOW">     0</i>
  </separator>
  <separator name="vdW DFT" >
   <i type="logical" name="LUSE_VDW"> T  </i>
   <i type="int" name="IVDW_NL">     1</i>
   <i type="logical" name="LSPIN_VDW"> F  </i>
   <i name="ZAB_VDW">     -0.84910000</i>
   <i name="GAMMA_VDW">      1.39626340</i>
   <i name="ALPHA_VDW">      0.00000000</i>
   <i name="PARAM1">      0.12340000</i>
   <i name="PARAM2">      1.00000000</i>
   <i name="BPARAM">      6.30000000</i>
   <i name="CPARAM">      0.00930000</i>
  </separator>
  <separator name="model GW" >
   <i type="int" name="MODEL_GW">     0</i>
   <i name="MODEL_EPS0">    228.16901408</i>
   <i name="MODEL_ALPHA">      1.00000000</i>
  </separator>
  <separator name="linear response parameters" >
   <i type="logical" name="LEPSILON"> F  </i>
   <i type="logical" name="LRPA"> F  </i>
   <i type="logical" name="LNABLA"> F  </i>
   <i type="logical" name="LVEL"> F  </i>
   <i name="CSHIFT">      0.10000000</i>
   <i name="OMEGAMAX">     -1.00000000</i>
   <i name="DEG_THRESHOLD">      0.00200000</i>
   <i name="RTIME">     -0.10000000</i>
   <i name="WPLASMAI">      0.00000000</i>
   <v name="DFIELD">      0.00000000      0.00000000      0.00000000</v>
   <v name="WPLASMA">      0.00000000      0.00000000      0.00000000      0.00000000      0.00000000      0.00000000      0.00000000      0.00000000      0.00000000</v>
  </separator>
  <separator name="orbital magnetization" >
   <i type="logical" name="NUCIND"> F  </i>
   <v name="MAGPOS">      0.00000000      0.00000000      0.00000000</v>
   <i type="logical" name="LNICSALL"> T  </i>
   <i type="logical" name="ORBITALMAG"> F  </i>
   <i type="logical" name="LMAGBLOCH"> F  </i>
   <i type="logical" name="LCHIMAG"> F  </i>
   <i type="logical" name="LGAUGE"> T  </i>
   <i type="int" name="MAGATOM">     0</i>
   <v name="MAGDIPOL">      0.00000000      0.00000000      0.00000000</v>
   <v name="AVECCONST">      0.00000000      0.00000000      0.00000000</v>
  </separator>
  <separator name="response functions" >
   <i type="logical" name="LALL_IN_ONE"> F  </i>
   <i type="int" name="IALL_IN_ONE">    -1</i>
   <i type="int" name="NBANDS_WAVE">    -1</i>
   <i type="logical" name="LFINITE_TEMPERATURE"> F  </i>
   <i type="logical" name="LADDER"> F  </i>
   <i type="logical" name="LRPAFORCE"> F  </i>
   <i type="logical" name="LFXC"> F  </i>
   <i type="logical" name="LHARTREE"> T  </i>
   <i type="int" name="IBSE">     2</i>
   <v type="int" name="KPOINT">    -1     0     0     0</v>
   <i type="logical" name="LTCTC"> F  </i>
   <i type="logical" name="LTCTE"> F  </i>
   <i type="logical" name="LTETE"> F  </i>
   <i type="logical" name="LTRIPLET"> F  </i>
   <i type="logical" name="LFXCEPS"> F  </i>
   <i type="logical" name="LFXHEG"> F  </i>
   <i type="int" name="NATURALO">     2</i>
   <i type="logical" name="LHOLEGF"> F  </i>
   <i type="logical" name="L2ORDER"> F  </i>
   <i type="logical" name="LDMP1"> F  </i>
   <i type="logical" name="LMP2LT"> F  </i>
   <i type="logical" name="LSMP2LT"> F  </i>
   <i type="logical" name="LGWLF"> F  </i>
   <i name="ENCUTGW">     -1.60000002</i>
   <i name="ENCUTGWSOFT">     -1.60000002</i>
   <i name="ENCUTLF">     -1.00000000</i>
   <i type="logical" name="ESF_SPLINES"> F  </i>
   <i name="ESF_CONV">      0.01000000</i>
   <i type="int" name="ESF_NINTER">    15</i>
   <i type="int" name="LMAXMP2">    -1</i>
   <i name="SCISSOR">      0.00000000</i>
   <i type="int" name="NOMEGA">     0</i>
   <i type="int" name="NOMEGAR">     0</i>
   <i type="int" name="NBANDSGW">    -1</i>
   <i type="int" name="NBANDSO">    -1</i>
   <i type="int" name="NBANDSV">    -1</i>
   <i type="int" name="NELMGW">     1</i>
   <i type="int" name="NELMHF">     1</i>
   <i type="int" name="DIM">     3</i>
   <i type="int" name="IESPILON">     4</i>
   <i type="int" name="ANTIRES">     0</i>
   <i name="OMEGAMAX">    -30.00000000</i>
   <i name="OMEGAMIN">    -30.00000000</i>
   <i name="OMEGATL">   -200.00000000</i>
   <i type="int" name="OMEGAGRID">     0</i>
   <i name="CSHIFT">     -0.10000000</i>
   <i type="logical" name="LSELFENERGY"> F  </i>
   <i type="logical" name="LSPECTRAL"> F  </i>
   <i type="logical" name="LSPECTRALGW"> F  </i>
   <i type="logical" name="LSINGLES"> F  </i>
   <i type="logical" name="LFERMIGW"> F  </i>
   <i type="logical" name="ODDONLYGW"> F  </i>
   <i type="logical" name="EVENONLYGW"> F  </i>
   <i type="int" name="NKREDLFX">     1</i>
   <i type="int" name="NKREDLFY">     1</i>
   <i type="int" name="NKREDLFZ">     1</i>
   <i type="int" name="MAXMEM">  2800</i>
   <i type="int" name="TELESCOPE">     0</i>
   <i type="int" name="NTAUPAR">    -1</i>
   <i type="int" name="NOMEGAPAR">    -1</i>
   <i name="DAMP_NEWTON">      0.80000001</i>
   <i name="LAMBDA">      1.00000000</i>
  </separator>
  <separator name="External order field" >
   <i name="OFIELD_KAPPA">      0.00000000</i>
   <v name="OFIELD_K">      0.00000000      0.00000000      0.00000000</v>
   <i name="OFIELD_Q6_NEAR">      0.00000000</i>
   <i name="OFIELD_Q6_FAR">      0.00000000</i>
   <i name="OFIELD_A">      0.00000000</i>
  </separator>
  <separator name="optional k-points parameters" >
   <i type="int" name="KPOINTS_OPT_MODE">     1</i>
   <i type="logical" name="LKPOINTS_OPT"> F  </i>
  </separator>
 </parameters>
 <atominfo>
  <atoms>      71 </atoms>
  <types>       2 </types>
  <array name="atoms" >
   <dimension dim="1">ion</dimension>
   <field type="string">element</field>
   <field type="int">atomtype</field>
   <set>
    <rc><c>W </c><c>   1</c></rc>
    <rc><c>W </c><c>   1</c></rc>
    <rc><c>W </c><c>   1</c></rc>
    <rc><c>W </c><c>   1</c></rc>
    <rc><c>W </c><c>   1</c></rc>
    <rc><c>W </c><c>   1</c></rc>
    <rc><c>W </c><c>   1</c></rc>
    <rc><c>W </c><c>   1</c></rc>
    <rc><c>W </c><c>   1</c></rc>
    <rc><c>W </c><c>   1</c></rc>
    <rc><c>W </c><c>   1</c></rc>
    <rc><c>W </c><c>   1</c></rc>
    <rc><c>W </c><c>   1</c></rc>
    <rc><c>W </c><c>   1</c></rc>
    <rc><c>W </c><c>   1</c></rc>
    <rc><c>W </c><c>   1</c></rc>
    <rc><c>W </c><c>   1</c></rc>
    <rc><c>W </c><c>   1</c></rc>
    <rc><c>W </c><c>   1</c></rc>
    <rc><c>W </c><c>   1</c></rc>
    <rc><c>W </c><c>   1</c></rc>
    <rc><c>Se</c><c>   2</c></rc>
    <rc><c>Se</c><c>   2</c></rc>
    <rc><c>Se</c><c>   2</c></rc>
    <rc><c>Se</c><c>   2</c></rc>
    <rc><c>Se</c><c>   2</c></rc>
    <rc><c>Se</c><c>   2</c></rc>
    <rc><c>Se</c><c>   2</c></rc>
    <rc><c>Se</c><c>   2</c></rc>
    <rc><c>Se</c><c>   2</c></rc>
    <rc><c>Se</c><c>   2</c></rc>
    <rc><c>Se</c><c>   2</c></rc>
    <rc><c>Se</c><c>   2</c></rc>
    <rc><c>Se</c><c>   2</c></rc>
    <rc><c>Se</c><c>   2</c></rc>
    <rc><c>Se</c><c>   2</c></rc>
    <rc><c>Se</c><c>   2</c></rc>
    <rc><c>Se</c><c>   2</c></rc>
    <rc><c>Se</c><c>   2</c></rc>
    <rc><c>Se</c><c>   2</c></rc>
    <rc><c>Se</c><c>   2</c></rc>
    <rc><c>Se</c><c>   2</c></rc>
    <rc><c>Se</c><c>   2</c></rc>
    <rc><c>Se</c><c>   2</c></rc>
    <rc><c>Se</c><c>   2</c></rc>
    <rc><c>Se</c><c>   2</c></rc>
    <rc><c>Se</c><c>   2</c></rc>
    <rc><c>Se</c><c>   2</c></rc>
    <rc><c>Se</c><c>   2</c></rc>
    <rc><c>Se</c><c>   2</c></rc>
    <rc><c>Se</c><c>   2</c></rc>
    <rc><c>Se</c><c>   2</c></rc>
    <rc><c>Se</c><c>   2</c></rc>
    <rc><c>Se</c><c>   2</c></rc>
    <rc><c>Se</c><c>   2</c></rc>
    <rc><c>Se</c><c>   2</c></rc>
    <rc><c>Se</c><c>   2</c></rc>
    <rc><c>Se</c><c>   2</c></rc>
    <rc><c>Se</c><c>   2</c></rc>
    <rc><c>Se</c><c>   2</c></rc>
    <rc><c>Se</c><c>   2</c></rc>
    <rc><c>Se</c><c>   2</c></rc>
    <rc><c>Se</c><c>   2</c></rc>
    <rc><c>Se</c><c>   2</c></rc>
    <rc><c>Se</c><c>   2</c></rc>
    <rc><c>Se</c><c>   2</c></rc>
    <rc><c>Se</c><c>   2</c></rc>
    <rc><c>Se</c><c>   2</c></rc>
    <rc><c>Se</c><c>   2</c></rc>
    <rc><c>Se</c><c>   2</c></rc>
    <rc><c>Se</c><c>   2</c></rc>
   </set>
  </array>
  <array name="atomtypes" >
   <dimension dim="1">type</dimension>
   <field type="int">atomspertype</field>
   <field type="string">element</field>
   <field>mass</field>
   <field>valence</field>
   <field type="string">pseudopotential</field>
   <set>
    <rc><c>  21</c><c>W </c><c>    183.85000000</c><c>      6.00000000</c><c>  PAW_PBE W 08Apr2002                   </c></rc>
    <rc><c>  50</c><c>Se</c><c>     78.96000000</c><c>      6.00000000</c><c>  PAW_PBE Se 06Sep2000                  </c></rc>
   </set>
  </array>
 </atominfo>
 <structure name="initialpos" >
  <crystal>
   <varray name="basis" >
    <v>      30.00000000       0.00000000       0.00000000 </v>
    <v>       0.00000000      30.00000000       0.00000000 </v>
    <v>       0.00000000       0.00000000      30.00000000 </v>
   </varray>
   <i name="volume">  27000.00000000 </i>
   <varray name="rec_basis" >
    <v>       0.03333333       0.00000000       0.00000000 </v>
    <v>       0.00000000       0.03333333       0.00000000 </v>
    <v>       0.00000000       0.00000000       0.03333333 </v>
   </varray>
  </crystal>
  <varray name="positions" >
   <v>       0.21666600       0.26399300       0.21453500 </v>
   <v>       0.32750401       0.26399201       0.21453500 </v>
   <v>       0.27208501       0.35997900       0.21453500 </v>
   <v>       0.43834099       0.26399100       0.21453500 </v>
   <v>       0.38292199       0.35997799       0.21453500 </v>
   <v>       0.32750100       0.45596701       0.21453500 </v>
   <v>       0.54916900       0.26399800       0.21453500 </v>
   <v>       0.49375001       0.35998499       0.21453500 </v>
   <v>       0.43832901       0.45597300       0.21453500 </v>
   <v>       0.38292101       0.55195600       0.21453500 </v>
   <v>       0.66000700       0.26399601       0.21453500 </v>
   <v>       0.60458797       0.35998300       0.21453500 </v>
   <v>       0.54916799       0.45597199       0.21453500 </v>
   <v>       0.49375901       0.55195397       0.21453500 </v>
   <v>       0.43834001       0.64794099       0.21453500 </v>
   <v>       0.77084398       0.26399601       0.21453500 </v>
   <v>       0.71542501       0.35998300       0.21453500 </v>
   <v>       0.66000402       0.45597100       0.21453500 </v>
   <v>       0.60459602       0.55195397       0.21453500 </v>
   <v>       0.54917699       0.64794099       0.21453500 </v>
   <v>       0.49375701       0.74392903       0.21453500 </v>
   <v>       0.27208799       0.23200300       0.15847699 </v>
   <v>       0.21667001       0.32798099       0.15848000 </v>
   <v>       0.38292399       0.23200400       0.15846901 </v>
   <v>       0.32750601       0.32798201       0.15847200 </v>
   <v>       0.27208900       0.42396900       0.15848000 </v>
   <v>       0.49375200       0.23199999       0.15846699 </v>
   <v>       0.43833399       0.32797798       0.15846901 </v>
   <v>       0.38291699       0.42396501       0.15847699 </v>
   <v>       0.32750401       0.51995802       0.15846699 </v>
   <v>       0.60459000       0.23200700       0.15847699 </v>
   <v>       0.54917300       0.32798499       0.15848000 </v>
   <v>       0.49375600       0.42397201       0.15848801 </v>
   <v>       0.43834299       0.51996499       0.15847699 </v>
   <v>       0.38292500       0.61594301       0.15848000 </v>
   <v>       0.71542603       0.23200799       0.15846901 </v>
   <v>       0.66000801       0.32798600       0.15847200 </v>
   <v>       0.60459203       0.42397401       0.15848000 </v>
   <v>       0.54917902       0.51996601       0.15846901 </v>
   <v>       0.49376100       0.61594498       0.15847200 </v>
   <v>       0.43834400       0.71193200       0.15848000 </v>
   <v>       0.77083701       0.32798201       0.15846901 </v>
   <v>       0.71542001       0.42396900       0.15847699 </v>
   <v>       0.66000700       0.51996201       0.15846699 </v>
   <v>       0.60458898       0.61593998       0.15846901 </v>
   <v>       0.54917198       0.71192801       0.15847699 </v>
   <v>       0.27208799       0.23200300       0.27059299 </v>
   <v>       0.21667001       0.32798099       0.27059001 </v>
   <v>       0.38292399       0.23200400       0.27060100 </v>
   <v>       0.32750601       0.32798201       0.27059799 </v>
   <v>       0.27208900       0.42396900       0.27059001 </v>
   <v>       0.49375200       0.23199999       0.27060401 </v>
   <v>       0.43833399       0.32797798       0.27060100 </v>
   <v>       0.38291699       0.42396501       0.27059299 </v>
   <v>       0.32750401       0.51995802       0.27060401 </v>
   <v>       0.60459000       0.23200700       0.27059299 </v>
   <v>       0.54917300       0.32798499       0.27059001 </v>
   <v>       0.49375600       0.42397201       0.27058300 </v>
   <v>       0.43834299       0.51996499       0.27059299 </v>
   <v>       0.38292500       0.61594301       0.27059001 </v>
   <v>       0.71542603       0.23200799       0.27060100 </v>
   <v>       0.66000801       0.32798600       0.27059799 </v>
   <v>       0.60459203       0.42397401       0.27059001 </v>
   <v>       0.54917902       0.51996601       0.27060100 </v>
   <v>       0.49376100       0.61594498       0.27059799 </v>
   <v>       0.43834400       0.71193200       0.27059001 </v>
   <v>       0.77083701       0.32798201       0.27060100 </v>
   <v>       0.71542001       0.42396900       0.27059299 </v>
   <v>       0.66000700       0.51996201       0.27060401 </v>
   <v>       0.60458898       0.61593998       0.27060100 </v>
   <v>       0.54917198       0.71192801       0.27059299 </v>
  </varray>
 </structure>
 <calculation>
  <scstep>
   <time name="dav">  166.67  173.76</time>
   <time name="total">  522.03  549.87</time>
   <energy>
    <i name="alphaZ">     86.09775193 </i>
    <i name="ewald">  80195.10497160 </i>
    <i name="hartreedc"> -94334.55998820 </i>
    <i name="XCdc">  -1059.64924173 </i>
    <i name="pawpsdc">  15664.51527918 </i>
    <i name="pawaedc"> -13666.29853733 </i>
    <i name="eentropy">     -0.39265453 </i>
    <i name="bandstr">   -694.05412326 </i>
    <i name="atom">  17252.96405040 </i>
    <i name="e_fr_energy">   3443.72750805 </i>
    <i name="e_wo_entrp">   3444.12016258 </i>
    <i name="e_0_energy">   3443.92383531 </i>
   </energy>
  </scstep>
  <scstep>
   <time name="dav">  230.38  243.44</time>
   <time name="total">  230.39  243.44</time>
   <energy>
    <i name="e_fr_energy">    978.67930438 </i>
    <i name="e_wo_entrp">    978.98636249 </i>
    <i name="e_0_energy">    978.83283343 </i>
   </energy>
  </scstep>
  <scstep>
   <time name="dav">  182.23  191.07</time>
   <time name="total">  182.23  191.07</time>
   <energy>
    <i name="e_fr_energy">   -185.52504013 </i>
    <i name="e_wo_entrp">   -185.52367115 </i>
    <i name="e_0_energy">   -185.52435564 </i>
   </energy>
  </scstep>
  <scstep>
   <time name="dav">  165.27  174.12</time>
   <time name="total">  165.27  174.12</time>
   <energy>
    <i name="e_fr_energy">   -357.05504272 </i>
    <i name="e_wo_entrp">   -356.93236207 </i>
    <i name="e_0_energy">   -356.99370240 </i>
   </energy>
  </scstep>
  <scstep>
   <time name="dav">  193.59  205.41</time>
   <time name="total">  213.41  226.46</time>
   <energy>
    <i name="e_fr_energy">   -366.72380312 </i>
    <i name="e_wo_entrp">   -366.43908221 </i>
    <i name="e_0_energy">   -366.58144266 </i>
   </energy>
  </scstep>
  <scstep>
   <time name="dav">  192.88  203.89</time>
   <time name="total">  568.48  600.79</time>
   <energy>
    <i name="e_fr_energy">   -361.00865473 </i>
    <i name="e_wo_entrp">   -360.84061644 </i>
    <i name="e_0_energy">   -360.92463558 </i>
   </energy>
  </scstep>
  <scstep>
   <time name="dav">  221.05  231.93</time>
   <time name="total">  602.78  632.43</time>
   <energy>
    <i name="e_fr_energy">   -377.51353817 </i>
    <i name="e_wo_entrp">   -377.36572166 </i>
    <i name="e_0_energy">   -377.43962992 </i>
   </energy>
  </scstep>
  <scstep>
   <time name="dav">  176.85  185.77</time>
   <time name="total">  554.17  583.62</time>
   <energy>
    <i name="e_fr_energy">   -347.97863115 </i>
    <i name="e_wo_entrp">   -347.77263458 </i>
    <i name="e_0_energy">   -347.87563287 </i>
   </energy>
  </scstep>
  <scstep>
   <time name="dav">  193.44  205.78</time>
   <time name="total">  573.58  604.40</time>
   <energy>
    <i name="e_fr_energy">   -333.81543036 </i>
    <i name="e_wo_entrp">   -333.77620229 </i>
    <i name="e_0_energy">   -333.79581632 </i>
   </energy>
  </scstep>
  <scstep>
   <time name="dav">  200.77  212.87</time>
   <time name="total">  578.97  611.51</time>
   <energy>
    <i name="e_fr_energy">   -328.93429111 </i>
    <i name="e_wo_entrp">   -328.76856502 </i>
    <i name="e_0_energy">   -328.85142807 </i>
   </energy>
  </scstep>
  <scstep>
   <time name="dav">  201.92  211.48</time>
   <time name="total">  583.68  609.60</time>
   <energy>
    <i name="e_fr_energy">   -327.87913052 </i>
    <i name="e_wo_entrp">   -327.63855771 </i>
    <i name="e_0_energy">   -327.75884411 </i>
   </energy>
  </scstep>
  <scstep>
   <time name="dav">  185.53  194.48</time>
   <time name="total">  566.17  593.60</time>
   <energy>
    <i name="e_fr_energy">   -327.41375031 </i>
    <i name="e_wo_entrp">   -327.14170879 </i>
    <i name="e_0_energy">   -327.27772955 </i>
   </energy>
  </scstep>
  <scstep>
   <time name="dav">  191.41  201.71</time>
   <time name="total">  569.13  599.75</time>
   <energy>
    <i name="e_fr_energy">   -327.08150240 </i>
    <i name="e_wo_entrp">   -326.77873416 </i>
    <i name="e_0_energy">   -326.93011828 </i>
   </energy>
  </scstep>
  <scstep>
   <time name="dav">  192.75  202.72</time>
   <time name="total">  572.60  602.11</time>
   <energy>
    <i name="e_fr_energy">   -326.91154613 </i>
    <i name="e_wo_entrp">   -326.60664690 </i>
    <i name="e_0_energy">   -326.75909651 </i>
   </energy>
  </scstep>
  <scstep>
   <time name="dav">  211.05  220.08</time>
   <time name="total">  590.56  621.70</time>
   <energy>
    <i name="e_fr_energy">   -326.89170810 </i>
    <i name="e_wo_entrp">   -326.53813537 </i>
    <i name="e_0_energy">   -326.71492173 </i>
   </energy>
  </scstep>
  <scstep>
   <time name="dav">  201.53  211.49</time>
   <time name="total">  581.61  610.86</time>
   <energy>
    <i name="e_fr_energy">   -326.82144827 </i>
    <i name="e_wo_entrp">   -326.39456424 </i>
    <i name="e_0_energy">   -326.60800626 </i>
   </energy>
  </scstep>
  <scstep>
   <time name="dav">  206.95  217.26</time>
   <time name="total">  584.51  616.57</time>
   <energy>
    <i name="e_fr_energy">   -326.78069134 </i>
    <i name="e_wo_entrp">   -326.38149515 </i>
    <i name="e_0_energy">   -326.58109325 </i>
   </energy>
  </scstep>
  <scstep>
   <time name="dav">  215.25  225.76</time>
   <time name="total">  596.38  624.57</time>
   <energy>
    <i name="e_fr_energy">   -326.76709263 </i>
    <i name="e_wo_entrp">   -326.33874775 </i>
    <i name="e_0_energy">   -326.55292019 </i>
   </energy>
  </scstep>
  <scstep>
   <time name="dav">  193.29  203.71</time>
   <time name="total">  572.72  602.74</time>
   <energy>
    <i name="e_fr_energy">   -326.76230177 </i>
    <i name="e_wo_entrp">   -326.32040438 </i>
    <i name="e_0_energy">   -326.54135307 </i>
   </energy>
  </scstep>
  <scstep>
   <time name="dav">  206.78  218.61</time>
   <time name="total">  586.67  617.60</time>
   <energy>
    <i name="e_fr_energy">   -326.76013258 </i>
    <i name="e_wo_entrp">   -326.36318640 </i>
    <i name="e_0_energy">   -326.56165949 </i>
   </energy>
  </scstep>
  <scstep>
   <time name="dav">  210.81  221.67</time>
   <time name="total">  590.19  618.41</time>
   <energy>
    <i name="e_fr_energy">   -326.75402689 </i>
    <i name="e_wo_entrp">   -326.31507634 </i>
    <i name="e_0_energy">   -326.53455162 </i>
   </energy>
  </scstep>
  <scstep>
   <time name="dav">  202.44  212.43</time>
   <time name="total">  581.72  611.79</time>
   <energy>
    <i name="e_fr_energy">   -326.75214490 </i>
    <i name="e_wo_entrp">   -326.33571855 </i>
    <i name="e_0_energy">   -326.54393173 </i>
   </energy>
  </scstep>
  <scstep>
   <time name="dav">  213.56  223.14</time>
   <time name="total">  593.53  621.81</time>
   <energy>
    <i name="e_fr_energy">   -326.75122945 </i>
    <i name="e_wo_entrp">   -326.31592823 </i>
    <i name="e_0_energy">   -326.53357884 </i>
   </energy>
  </scstep>
  <scstep>
   <time name="dav">  210.71  221.02</time>
   <time name="total">  589.54  620.47</time>
   <energy>
    <i name="e_fr_energy">   -326.75036136 </i>
    <i name="e_wo_entrp">   -326.33118074 </i>
    <i name="e_0_energy">   -326.54077105 </i>
   </energy>
  </scstep>
  <scstep>
   <time name="dav">  203.86  214.03</time>
   <time name="total">  581.65  613.32</time>
   <energy>
    <i name="e_fr_energy">   -326.74978794 </i>
    <i name="e_wo_entrp">   -326.31850497 </i>
    <i name="e_0_energy">   -326.53414645 </i>
   </energy>
  </scstep>
  <scstep>
   <time name="dav">  180.88  191.56</time>
   <time name="total">  558.71  590.71</time>
   <energy>
    <i name="e_fr_energy">   -326.74943597 </i>
    <i name="e_wo_entrp">   -326.32894691 </i>
    <i name="e_0_energy">   -326.53919144 </i>
   </energy>
  </scstep>
  <scstep>
   <time name="dav">  169.56  180.02</time>
   <time name="total">  547.24  579.17</time>
   <energy>
    <i name="e_fr_energy">   -326.74929753 </i>
    <i name="e_wo_entrp">   -326.32136027 </i>
    <i name="e_0_energy">   -326.53532890 </i>
   </energy>
  </scstep>
  <scstep>
   <time name="dav">  150.23  158.59</time>
   <time name="total">  529.22  557.27</time>
   <energy>
    <i name="e_fr_energy">   -326.74956340 </i>
    <i name="e_wo_entrp">   -326.32540766 </i>
    <i name="e_0_energy">   -326.53748553 </i>
   </energy>
  </scstep>
  <scstep>
   <time name="dav">  146.05  153.50</time>
   <time name="total">  530.96  553.99</time>
   <energy>
    <i name="e_fr_energy">   -326.74991519 </i>
    <i name="e_wo_entrp">   -326.32527187 </i>
    <i name="e_0_energy">   -326.53759353 </i>
   </energy>
  </scstep>
  <scstep>
   <time name="dav">  151.70  158.94</time>
   <time name="total">  534.84  560.01</time>
   <energy>
    <i name="e_fr_energy">   -326.75023930 </i>
    <i name="e_wo_entrp">   -326.32652265 </i>
    <i name="e_0_energy">   -326.53838097 </i>
   </energy>
  </scstep>
  <scstep>
   <time name="dav">  158.70  166.18</time>
   <time name="total">  537.62  565.37</time>
   <energy>
    <i name="e_fr_energy">   -326.75073035 </i>
    <i name="e_wo_entrp">   -326.32470800 </i>
    <i name="e_0_energy">   -326.53771918 </i>
   </energy>
  </scstep>
  <scstep>
   <time name="dav">  146.54  153.75</time>
   <time name="total">  525.93  552.94</time>
   <energy>
    <i name="e_fr_energy">   -326.75127414 </i>
    <i name="e_wo_entrp">   -326.32412425 </i>
    <i name="e_0_energy">   -326.53769919 </i>
   </energy>
  </scstep>
  <scstep>
   <time name="dav">  135.68  144.25</time>
   <time name="total">  516.22  544.12</time>
   <energy>
    <i name="e_fr_energy">   -326.75153880 </i>
    <i name="e_wo_entrp">   -326.32527008 </i>
    <i name="e_0_energy">   -326.53840444 </i>
   </energy>
  </scstep>
  <scstep>
   <time name="dav">  119.31  126.19</time>
   <time name="total">  495.49  524.41</time>
   <energy>
    <i name="e_fr_energy">   -326.75177998 </i>
    <i name="e_wo_entrp">   -326.32558943 </i>
    <i name="e_0_energy">   -326.53868470 </i>
   </energy>
  </scstep>
  <scstep>
   <time name="dav">  128.18  135.34</time>
   <time name="total">  504.09  530.83</time>
   <energy>
    <i name="e_fr_energy">   -326.75209288 </i>
    <i name="e_wo_entrp">   -326.32508842 </i>
    <i name="e_0_energy">   -326.53859065 </i>
   </energy>
  </scstep>
  <scstep>
   <time name="dav">  125.41  132.94</time>
   <time name="total">  505.06  532.57</time>
   <energy>
    <i name="e_fr_energy">   -326.75235562 </i>
    <i name="e_wo_entrp">   -326.32512951 </i>
    <i name="e_0_energy">   -326.53874257 </i>
   </energy>
  </scstep>
  <scstep>
   <time name="dav">  119.62  124.94</time>
   <time name="total">  499.61  523.81</time>
   <energy>
    <i name="e_fr_energy">   -326.75246356 </i>
    <i name="e_wo_entrp">   -326.32531434 </i>
    <i name="e_0_energy">   -326.53888895 </i>
   </energy>
  </scstep>
  <scstep>
