unknown system                          
   1.00000000000000     
     1.236187   -2.141138    0.000000
     1.236187    2.141138    0.000000
     0.000000    0.000000    6.321422
   C 
     2
Direct
   0.333333  0.166667  0.500000
   0.666667  0.833333  0.500000
 
   32   32   84
 0.69102201827E-03 0.68500831237E-03 0.67610275756E-03 0.68168047156E-03 0.70857832226E-03
 0.74621130376E-03 0.77768838132E-03 0.79460735948E-03 0.79909681516E-03 0.79402087982E-03
 0.77667000094E-03 0.74501973296E-03 0.70749244548E-03 0.68091007462E-03 0.67572380882E-03
 0.68494442225E-03 0.69107803311E-03 0.68494442073E-03 0.67572380672E-03 0.68091007352E-03
 0.70749244688E-03 0.74501973728E-03 0.77667000682E-03 0.79402088445E-03 0.79909681583E-03
 0.79460735551E-03 0.77768837466E-03 0.74621129816E-03 0.70857832067E-03 0.68168047457E-03
 0.67610276286E-03 0.68500831633E-03 0.68380887749E-03 0.68488117296E-03 0.67930638584E-03
 0.68346199370E-03 0.71155730965E-03 0.76055104679E-03 0.81255196596E-03 0.85044095032E-03
 0.86852795157E-03 0.86856910349E-03 0.85051704234E-03 0.81255744751E-03 0.76040644447E-03
 0.71128145365E-03 0.68317715259E-03 0.67916322261E-03 0.68494442136E-03 0.68397660618E-03
 0.67416135128E-03 0.66806661841E-03 0.67741999892E-03 0.69997117981E-03 0.72269357858E-03
 0.73568261470E-03 0.73975544202E-03 0.74024203996E-03 0.73697237672E-03 0.72435324990E-03
 0.70149586026E-03 0.67844370145E-03 0.66849027424E-03 0.67414403185E-03 0.66738583840E-03
 0.67387984820E-03 0.67565564291E-03 0.68312978100E-03 0.71211430873E-03 0.76727272805E-03
 0.83547382471E-03 0.89574486786E-03 0.93394267562E-03 0.94676261114E-03 0.93466620664E-03
 0.89689117760E-03 0.83660410269E-03 0.76804099960E-03 0.71243315360E-03 0.68317715250E-03
 0.67572380771E-03 0.67416135177E-03 0.66782889936E-03 0.66004839250E-03 0.66065146043E-03
 0.67249901317E-03 0.68774798789E-03 0.69683756868E-03 0.69830339625E-03 0.69787150067E-03
 0.69912303038E-03 0.69812687280E-03 0.68898696379E-03 0.67325715898E-03 0.66078381117E-03
 0.65972408578E-03 0.65158906546E-03 0.65960873371E-03 0.66796230738E-03 0.68089560577E-03
 0.71095747592E-03 0.76709994127E-03 0.84345727811E-03 0.92108596977E-03 0.98053725801E-03
 0.10116337283E-02 0.10121876438E-02 0.98198305332E-03 0.92288449693E-03 0.84501294385E-03
 0.76804100055E-03 0.71128145465E-03 0.68091007446E-03 0.66806661907E-03 0.66004839275E-03
 0.65232303274E-03 0.64915153232E-03 0.65440578646E-03 0.66466507531E-03 0.67227346140E-03
 0.67352954115E-03 0.67175251677E-03 0.67194959962E-03 0.67398691692E-03 0.67267201740E-03
 0.66469739319E-03 0.65396636310E-03 0.64840196499E-03 0.64106914367E-03 0.64872843781E-03
 0.66070347843E-03 0.67772547992E-03 0.70765942286E-03 0.76006479811E-03 0.83561154871E-03
 0.92143326121E-03 0.99768659027E-03 0.10484055953E-02 0.10661853617E-02 0.10493035578E-02
 0.99912932673E-03 0.92288449770E-03 0.83660410479E-03 0.76040644726E-03 0.70749244746E-03
 0.67741999939E-03 0.66065146062E-03 0.64915153229E-03 0.64193612818E-03 0.64145383965E-03
 0.64714197581E-03 0.65416800805E-03 0.65789609262E-03 0.65798429323E-03 0.65736548033E-03
 0.65779829768E-03 0.65745662909E-03 0.65341699423E-03 0.64612772115E-03 0.64037187275E-03
 0.63346467395E-03 0.64127117728E-03 0.65472791908E-03 0.67314813157E-03 0.70067007202E-03
 0.74549302758E-03 0.81263839160E-03 0.89658741487E-03 0.98146925506E-03 0.10488407422E-02
 0.10855326047E-02 0.10857167629E-02 0.10493035574E-02 0.98198305369E-03 0.89689117989E-03
 0.81255745161E-03 0.74501973748E-03 0.69997118002E-03 0.67249901315E-03 0.65440578622E-03
 0.64145383941E-03 0.63417349943E-03 0.63363031703E-03 0.63811540972E-03 0.64391457603E-03
 0.64810047153E-03 0.64987359650E-03 0.64959136527E-03 0.64730874718E-03 0.64277130684E-03
 0.63685764565E-03 0.63252834554E-03 0.62554740472E-03 0.63388406617E-03 0.64776351126E-03
 0.66546644342E-03 0.68858182344E-03 0.72349805800E-03 0.77745030693E-03 0.85128656981E-03
 0.93539189229E-03 0.10127765319E-02 0.10665203107E-02 0.10855326040E-02 0.10661853600E-02
 0.10121876425E-02 0.93466620736E-03 0.85051704603E-03 0.77667000689E-03 0.72269357866E-03
 0.68774798774E-03 0.66466507490E-03 0.64714197528E-03 0.63363031666E-03 0.62579650408E-03
 0.62478372967E-03 0.62923496159E-03 0.63592503874E-03 0.64141225993E-03 0.64329513955E-03
 0.64080395706E-03 0.63492947329E-03 0.62820029428E-03 0.62404345030E-03 0.61747866144E-03
 0.62553450110E-03 0.63900064172E-03 0.65491028024E-03 0.67276629743E-03 0.69720876084E-03
 0.73620689749E-03 0.79493147040E-03 0.86987980306E-03 0.94820927412E-03 0.10127765322E-02
 0.10488407415E-02 0.10484055930E-02 0.10116337251E-02 0.94676260904E-03 0.86856910452E-03
 0.79402088470E-03 0.73568261495E-03 0.69683756869E-03 0.67227346105E-03 0.65416800744E-03
 0.63811540909E-03 0.62478372930E-03 0.61713751732E-03 0.61667872746E-03 0.62179054940E-03
 0.62862306538E-03 0.63313777819E-03 0.63291683001E-03 0.62809376224E-03 0.62127755247E-03
 0.61651445064E-03 0.61090292409E-03 0.61776058493E-03 0.63025284345E-03 0.64448784127E-03
 0.65785579228E-03 0.67304548215E-03 0.69782090334E-03 0.73976336349E-03 0.79984978643E-03
 0.86987980375E-03 0.93539189354E-03 0.98146925574E-03 0.99768658893E-03 0.98053725431E-03
 0.93394267108E-03 0.86852794879E-03 0.79909681637E-03 0.73975544266E-03 0.69830339665E-03
 0.67352954117E-03 0.65789609222E-03 0.64391457544E-03 0.62923496106E-03 0.61667872717E-03
 0.61011925754E-03 0.61048940769E-03 0.61512320220E-03 0.61993727528E-03 0.62184340377E-03
 0.61983544532E-03 0.61511545962E-03 0.61082404343E-03 0.60656897081E-03 0.61155482908E-03
 0.62269100735E-03 0.63627398143E-03 0.64766817339E-03 0.65685357543E-03 0.67032428778E-03
 0.69669782389E-03 0.73976336344E-03 0.79493147119E-03 0.85128657182E-03 0.89658741729E-03
 0.92143326224E-03 0.92108596784E-03 0.89574486309E-03 0.85044094475E-03 0.79460735619E-03
 0.74024204087E-03 0.69787150153E-03 0.67175251729E-03 0.65798429333E-03 0.64810047129E-03
 0.63592503834E-03 0.62179054908E-03 0.61048940754E-03 0.60567762669E-03 0.60664034244E-03
 0.60981885994E-03 0.61209517693E-03 0.61216402078E-03 0.61008021172E-03 0.60720173110E-03
 0.60563666734E-03 0.60736118289E-03 0.61563008861E-03 0.62866509993E-03 0.64082602666E-03
 0.64867488302E-03 0.65577462479E-03 0.67032428723E-03 0.69782090251E-03 0.73620689733E-03
 0.77745030842E-03 0.81263839480E-03 0.83561155207E-03 0.84345727938E-03 0.83547382241E-03
 0.81255196047E-03 0.77768837514E-03 0.73697237759E-03 0.69912303139E-03 0.67194960053E-03
 0.65736548094E-03 0.64987359676E-03 0.64141225989E-03 0.62862306524E-03 0.61512320209E-03
 0.60664034242E-03 0.60493738471E-03 0.60708473156E-03 0.60940337800E-03 0.61032167759E-03
 0.60967406601E-03 0.60760579432E-03 0.61043121170E-03 0.60734469861E-03 0.60980441883E-03
 0.61959629276E-03 0.63250955770E-03 0.64247369890E-03 0.64867488288E-03 0.65685357462E-03
 0.67304548056E-03 0.69720875924E-03 0.72349805773E-03 0.74549302963E-03 0.76006480208E-03
 0.76709994526E-03 0.76727272955E-03 0.76055104435E-03 0.74621129805E-03 0.72435325029E-03
 0.69812687355E-03 0.67398691784E-03 0.65779829851E-03 0.64959136586E-03 0.64329513987E-03
 0.63313777833E-03 0.61993727534E-03 0.60981885999E-03 0.60708473161E-03 0.61003845471E-03
 0.61397771824E-03 0.61613125443E-03 0.61626499773E-03 0.61431854921E-03 0.62085488552E-03
 0.61389027423E-03 0.60897653227E-03 0.61141101256E-03 0.62115469002E-03 0.63250955796E-03
 0.64082602692E-03 0.64766817303E-03 0.65785579081E-03 0.67276629501E-03 0.68858182122E-03
 0.70067007158E-03 0.70765942514E-03 0.71095748031E-03 0.71211431306E-03 0.71155731135E-03
 0.70857831997E-03 0.70149585997E-03 0.68898696397E-03 0.67267201793E-03 0.65745662975E-03
 0.64730874782E-03 0.64080395756E-03 0.63291683035E-03 0.62184340401E-03 0.61209517711E-03
 0.60940337813E-03 0.61397771834E-03 0.62071659478E-03 0.62512900667E-03 0.62649206499E-03
 0.62527926395E-03 0.63154970641E-03 0.62490549553E-03 0.61555684095E-03 0.60948998051E-03
 0.61141101262E-03 0.61959629318E-03 0.62866510069E-03 0.63627398202E-03 0.64448784088E-03
 0.65491027836E-03 0.66546644042E-03 0.67314812886E-03 0.67772547917E-03 0.68089560797E-03
 0.68312978540E-03 0.68346199809E-03 0.68168047351E-03 0.67844370062E-03 0.67325715851E-03
 0.66469739313E-03 0.65341699445E-03 0.64277130720E-03 0.63492947366E-03 0.62809376254E-03
 0.61983544555E-03 0.61216402097E-03 0.61032167776E-03 0.61613125455E-03 0.62512900673E-03
 0.63154925472E-03 0.63395566732E-03 0.63398564584E-03 0.63618097001E-03 0.63376800700E-03
 0.62602938331E-03 0.61555684072E-03 0.60897653202E-03 0.60980441894E-03 0.61563008938E-03
 0.62269100859E-03 0.63025284447E-03 0.63900064156E-03 0.64776350934E-03 0.65472791585E-03
 0.66070347534E-03 0.66796230620E-03 0.67565564463E-03 0.67930638986E-03 0.67610276182E-03
 0.66849027317E-03 0.66078381026E-03 0.65396636249E-03 0.64612772086E-03 0.63685764559E-03
 0.62820029432E-03 0.62127755254E-03 0.61511545967E-03 0.61008021176E-03 0.60967406603E-03
 0.61626499778E-03 0.62649206500E-03 0.63395566732E-03 0.63621503351E-03 0.63619342067E-03
 0.63464325098E-03 0.63611216945E-03 0.63376800692E-03 0.62490549510E-03 0.61389027351E-03
 0.60734469796E-03 0.60736118287E-03 0.61155483003E-03 0.61776058665E-03 0.62553450274E-03
 0.63388406657E-03 0.64127117570E-03 0.64872843459E-03 0.65960873030E-03 0.67387984642E-03
 0.68488117392E-03 0.68500831571E-03 0.67414403095E-03 0.65972408482E-03 0.64840196414E-03
 0.64037187213E-03 0.63252834513E-03 0.62404345003E-03 0.61651445044E-03 0.61082404322E-03
 0.60720173087E-03 0.60760579409E-03 0.61431854902E-03 0.62527926380E-03 0.63398564574E-03
 0.63619342064E-03 0.63465840145E-03 0.63289114995E-03 0.63464325125E-03 0.63618097023E-03
 0.63154970619E-03 0.62085488464E-03 0.61043121032E-03 0.60563666605E-03 0.60656897038E-03
 0.61090292504E-03 0.61747866361E-03 0.62554740713E-03 0.63346467521E-03 0.64106914279E-03
 0.65158906246E-03 0.66738583468E-03 0.68380887493E-03 0.69102201827E-03 0.68380887710E-03
 0.66738583772E-03 0.65158906470E-03 0.64106914299E-03 0.63346467343E-03 0.62554740433E-03
 0.61747866110E-03 0.61090292371E-03 0.60656897035E-03 0.60563666683E-03 0.61043121120E-03
 0.62085488510E-03 0.63154970612E-03 0.63618096985E-03 0.63464325092E-03 0.63464325117E-03
 0.63465840209E-03 0.63619342149E-03 0.63398564634E-03 0.62527926359E-03 0.61431854773E-03
 0.60760579202E-03 0.60720172882E-03 0.61082404226E-03 0.61651445139E-03 0.62404345288E-03
 0.63252834889E-03 0.64037187512E-03 0.64840196500E-03 0.65972408317E-03 0.67414402782E-03
 0.68500831300E-03 0.68488117320E-03 0.67387984806E-03 0.65960873333E-03 0.64872843738E-03
 0.64127117691E-03 0.63388406589E-03 0.62553450084E-03 0.61776058456E-03 0.61155482855E-03
 0.60736118221E-03 0.60734469786E-03 0.61389027350E-03 0.62490549493E-03 0.63376800662E-03
 0.63611216926E-03 0.63618097006E-03 0.63619342145E-03 0.63621503492E-03 0.63395566887E-03
 0.62649206591E-03 0.61626499726E-03 0.60967406383E-03 0.61008020827E-03 0.61511545604E-03
 0.62127755031E-03 0.62820029465E-03 0.63685764867E-03 0.64612772549E-03 0.65396636666E-03
 0.66078381211E-03 0.66849027198E-03 0.67610275861E-03 0.67930638665E-03 0.67565564334E-03
 0.66796230749E-03 0.66070347837E-03 0.65472791903E-03 0.64776351129E-03 0.63900064175E-03
 0.63025284336E-03 0.62269100702E-03 0.61563008801E-03 0.60980441800E-03 0.60897653134E-03
 0.61555684010E-03 0.62602938267E-03 0.63376800654E-03 0.63154970590E-03 0.63398564626E-03
 0.63395566888E-03 0.63154925716E-03 0.62512900921E-03 0.61613125593E-03 0.61032167706E-03
 0.61216401781E-03 0.61983544055E-03 0.62809375721E-03 0.63492946999E-03 0.64277130675E-03
 0.65341699757E-03 0.66469739846E-03 0.67325716365E-03 0.67844370320E-03 0.68168047263E-03
 0.68346199472E-03 0.68312978181E-03 0.68089560627E-03 0.67772548021E-03 0.67314813186E-03
 0.66546644380E-03 0.65491028068E-03 0.64448784163E-03 0.63627398153E-03 0.62866509964E-03
 0.61959629211E-03 0.61141101163E-03 0.60948997953E-03 0.61555683988E-03 0.62490549453E-03
 0.62085488422E-03 0.62527926345E-03 0.62649206593E-03 0.62512900927E-03 0.62071659851E-03
 0.61397772199E-03 0.60940338022E-03 0.61209517636E-03 0.62184340001E-03 0.63291682389E-03
 0.64080395055E-03 0.64730874274E-03 0.65745662855E-03 0.67267202098E-03 0.68898696977E-03
 0.70149586569E-03 0.70857832296E-03 0.71155731055E-03 0.71211430958E-03 0.71095747654E-03
 0.70765942333E-03 0.70067007249E-03 0.68858182406E-03 0.67276629822E-03 0.65785579312E-03
 0.64766817403E-03 0.64082602689E-03 0.63250955745E-03 0.62115468933E-03 0.61141101170E-03
 0.60897653110E-03 0.61389027280E-03 0.61043120981E-03 0.61431854754E-03 0.61626499730E-03
 0.61613125605E-03 0.61397772208E-03 0.61003845993E-03 0.60708473664E-03 0.60981886295E-03
 0.61993727474E-03 0.63313777372E-03 0.64329513224E-03 0.64959135752E-03 0.65779829229E-03
 0.67398691598E-03 0.69812687648E-03 0.72435325619E-03 0.74621130386E-03 0.76055104726E-03
 0.76727272861E-03 0.76709994176E-03 0.76006479846E-03 0.74549302798E-03 0.72349805859E-03
 0.69720876173E-03 0.67304548328E-03 0.65685357653E-03 0.64867488381E-03 0.64247369919E-03
 0.63250955769E-03 0.61959629253E-03 0.60980441810E-03 0.60734469721E-03 0.60563666551E-03
 0.60760579178E-03 0.60967406386E-03 0.61032167720E-03 0.60940338035E-03 0.60708473668E-03
 0.60493739149E-03 0.60664034884E-03 0.61512320597E-03 0.62862306492E-03 0.64141225497E-03
 0.64987358841E-03 0.65736547177E-03 0.67194959367E-03 0.69912302919E-03 0.73697238029E-03
 0.77768838084E-03 0.81255196590E-03 0.83547382486E-03 0.84345727822E-03 0.83561154870E-03
 0.81263839160E-03 0.77745030715E-03 0.73620689815E-03 0.69782090444E-03 0.67032428909E-03
 0.65577462599E-03 0.64867488368E-03 0.64082602715E-03 0.62866510040E-03 0.61563008877E-03
 0.60736118218E-03 0.60656896990E-03 0.60720172858E-03 0.61008020830E-03 0.61216401800E-03
 0.61209517653E-03 0.60981886300E-03 0.60664034881E-03 0.60567763487E-03 0.61048941520E-03
 0.62179055380E-03 0.63592503844E-03 0.64810046639E-03 0.65798428481E-03 0.67175250796E-03
 0.69787149463E-03 0.74024203866E-03 0.79460735878E-03 0.85044094993E-03 0.89574486766E-03
 0.92108596955E-03 0.92143326080E-03 0.89658741434E-03 0.85128656945E-03 0.79493147049E-03
 0.73976336420E-03 0.69669782506E-03 0.67032428855E-03 0.65685357573E-03 0.64766817366E-03
 0.63627398210E-03 0.62269100827E-03 0.61155482950E-03 0.61090292464E-03 0.61082404205E-03
 0.61511545610E-03 0.61983544076E-03 0.62184340024E-03 0.61993727480E-03 0.61512320586E-03
 0.61048941504E-03 0.61011926673E-03 0.61667873566E-03 0.62923496634E-03 0.64391457589E-03
 0.65789608762E-03 0.67352953300E-03 0.69830338784E-03 0.73975543636E-03 0.79909681459E-03
 0.86852795121E-03 0.93394267544E-03 0.98053725773E-03 0.99768658972E-03 0.98146925423E-03
 0.93539189138E-03 0.86987980250E-03 0.79984978648E-03 0.73976336414E-03 0.69782090359E-03
 0.67304548170E-03 0.65785579162E-03 0.64448784123E-03 0.63025284438E-03 0.61776058628E-03
 0.61747866325E-03 0.61651445118E-03 0.62127755038E-03 0.62809375751E-03 0.63291682423E-03
 0.63313777386E-03 0.62862306478E-03 0.62179055346E-03 0.61667873537E-03 0.61713752700E-03
 0.62478373805E-03 0.63811541454E-03 0.65416800808E-03 0.67227345688E-03 0.69683756134E-03
 0.73568260729E-03 0.79402087959E-03 0.86856910342E-03 0.94676261127E-03 0.10116337284E-02
 0.10484055950E-02 0.10488407414E-02 0.10127765308E-02 0.94820927311E-03 0.86987980320E-03
 0.79493147130E-03 0.73620689798E-03 0.69720876013E-03 0.67276629579E-03 0.65491027879E-03
 0.63900064158E-03 0.62553450247E-03 0.62554740673E-03 0.62404345263E-03 0.62820029471E-03
 0.63492947035E-03 0.64080395104E-03 0.64329513256E-03 0.64141225494E-03 0.63592503805E-03
 0.62923496580E-03 0.62478373768E-03 0.62579651358E-03 0.63363032505E-03 0.64714198037E-03
 0.66466507546E-03 0.68774798410E-03 0.72269357249E-03 0.77667000086E-03 0.85051704251E-03
 0.93466620710E-03 0.10121876444E-02 0.10661853620E-02 0.10855326045E-02 0.10665203099E-02
 0.10127765311E-02 0.93539189267E-03 0.85128657149E-03 0.77745030865E-03 0.72349805832E-03
 0.68858182183E-03 0.66546644079E-03 0.64776350936E-03 0.63388406629E-03 0.63346467470E-03
 0.63252834848E-03 0.63685764859E-03 0.64277130712E-03 0.64730874338E-03 0.64959135810E-03
 0.64987358863E-03 0.64810046614E-03 0.64391457532E-03 0.63811541393E-03 0.63363032469E-03
 0.63417350816E-03 0.64145384679E-03 0.65440579043E-03 0.67249901342E-03 0.69997117687E-03
 0.74501973276E-03 0.81255744760E-03 0.89689117810E-03 0.98198305416E-03 0.10493035586E-02
 0.10857167633E-02 0.10855326037E-02 0.10488407408E-02 0.98146925489E-03 0.89658741677E-03
 0.81263839476E-03 0.74549302999E-03 0.70067007203E-03 0.67314812915E-03 0.65472791579E-03
 0.64127117534E-03 0.64106914211E-03 0.64037187451E-03 0.64612772521E-03 0.65341699778E-03
 0.65745662922E-03 0.65779829312E-03 0.65736547236E-03 0.65798428492E-03 0.65789608724E-03
 0.65416800747E-03 0.64714197984E-03 0.64145384656E-03 0.64193613562E-03 0.64915153819E-03
 0.66065146361E-03 0.67741999918E-03 0.70749244491E-03 0.76040644414E-03 0.83660410285E-03
 0.92288449764E-03 0.99912932771E-03 0.10493035582E-02 0.10661853604E-02 0.10484055927E-02
 0.99768658839E-03 0.92143326183E-03 0.83561155205E-03 0.76006480243E-03 0.70765942563E-03
 0.67772547952E-03 0.66070347528E-03 0.64872843418E-03 0.65158906174E-03 0.64840196416E-03
 0.65396636609E-03 0.66469739841E-03 0.67267202151E-03 0.67398691692E-03 0.67194959460E-03
 0.67175250850E-03 0.67352953302E-03 0.67227345654E-03 0.66466507506E-03 0.65440579020E-03
 0.64915153818E-03 0.65232303850E-03 0.66004839682E-03 0.66806662064E-03 0.68091007371E-03
 0.71128145279E-03 0.76804099919E-03 0.84501294405E-03 0.92288449843E-03 0.98198305456E-03
 0.10121876431E-02 0.10116337252E-02 0.98053725408E-03 0.92108596764E-03 0.84345727950E-03
 0.76709994575E-03 0.71095748096E-03 0.68089560850E-03 0.66796230631E-03 0.65960872992E-03
 0.66738583401E-03 0.65972408221E-03 0.66078381119E-03 0.67325716318E-03 0.68898696995E-03
 0.69812687724E-03 0.69912303020E-03 0.69787149547E-03 0.69830338823E-03 0.69683756134E-03
 0.68774798394E-03 0.67249901339E-03 0.66065146379E-03 0.66004839705E-03 0.66782890329E-03
 0.67416135390E-03 0.67572380785E-03 0.68317715141E-03 0.71243315263E-03 0.76804100011E-03
 0.83660410497E-03 0.89689118040E-03 0.93466620783E-03 0.94676260917E-03 0.93394267090E-03
 0.89574486288E-03 0.83547382255E-03 0.76727273013E-03 0.71211431391E-03 0.68312978620E-03
 0.67565564507E-03 0.67387984628E-03 0.68380887454E-03 0.67414402695E-03 0.66849027089E-03
 0.67844370234E-03 0.70149586538E-03 0.72435325657E-03 0.73697238115E-03 0.74024203959E-03
 0.73975543697E-03 0.73568260753E-03 0.72269357256E-03 0.69997117708E-03 0.67741999964E-03
 0.66806662126E-03 0.67416135440E-03 0.68397660817E-03 0.68494442161E-03 0.67916322151E-03
 0.68317715132E-03 0.71128145374E-03 0.76040644691E-03 0.81255745170E-03 0.85051704619E-03
 0.86856910445E-03 0.86852794843E-03 0.85044094435E-03 0.81255196039E-03 0.76055104478E-03
 0.71155731224E-03 0.68346199912E-03 0.67930639066E-03 0.68488117414E-03 0.94162793999E-03
 0.93171029627E-03 0.91080288831E-03 0.89673369834E-03 0.89961242908E-03 0.91455296743E-03
 0.92959451803E-03 0.93774990506E-03 0.93973560884E-03 0.93733754080E-03 0.92887781754E-03
 0.91371398630E-03 0.89884812470E-03 0.89619153444E-03 0.91053537586E-03 0.93166358961E-03
 0.94166557257E-03 0.93166370110E-03 0.91053498794E-03 0.89619087473E-03 0.89884812610E-03
 0.91371464925E-03 0.92887820923E-03 0.93733743240E-03 0.93973560952E-03 0.93775001410E-03
 0.92959412558E-03 0.91455230322E-03 0.89961242749E-03 0.89673435997E-03 0.91080327939E-03
 0.93171018723E-03 0.93161441455E-03 0.93161913483E-03 0.91679873338E-03 0.90308795477E-03
 0.90617216985E-03 0.92768694528E-03 0.95585763669E-03 0.97771098787E-03 0.98824523412E-03
 0.98827376499E-03 0.97776324448E-03 0.95586007548E-03 0.92758536359E-03 0.90598064605E-03
 0.90289107390E-03 0.91670029170E-03 0.93166370175E-03 0.93173029277E-03 0.91517642888E-03
 0.89487831977E-03 0.88471181476E-03 0.88716400157E-03 0.89431911711E-03 0.89851293788E-03
 0.89922010387E-03 0.89956197521E-03 0.89941897497E-03 0.89548536889E-03 0.88823716360E-03
 0.88543538932E-03 0.89518122579E-03 0.91516831483E-03 0.90656997140E-03 0.91497779949E-03
 0.91048485165E-03 0.90285389907E-03 0.90819354723E-03 0.93422603907E-03 0.97355349046E-03
 0.10109421513E-02 0.10352712151E-02 0.10435019440E-02 0.10357799557E-02 0.10117479716E-02
 0.97434863063E-03 0.93476844941E-03 0.90842149867E-03 0.90289080098E-03 0.91053498895E-03
 0.91517642939E-03 0.90688053374E-03 0.88968132208E-03 0.87511206433E-03 0.86986888355E-03
 0.87098417647E-03 0.87187192267E-03 0.87036706743E-03 0.86936369079E-03 0.87094373311E-03
 0.87277884151E-03 0.87185625284E-03 0.87040436472E-03 0.87520858158E-03 0.88945604966E-03
 0.87653720684E-03 0.88936958408E-03 0.89480377318E-03 0.89618028413E-03 0.90575207064E-03
 0.93410576119E-03 0.97981893129E-03 0.10298779596E-02 0.10695296062E-02 0.10905576702E-02
 0.10909481521E-02 0.10705483379E-02 0.10311445098E-02 0.98091427559E-03 0.93476872317E-03
 0.90598064708E-03 0.89619087570E-03 0.89487832044E-03 0.88968132235E-03 0.87705613839E-03
 0.86289140261E-03 0.85417969219E-03 0.85182614076E-03 0.85157939015E-03 0.85008295019E-03
 0.84818077939E-03 0.84832050247E-03 0.85040699378E-03 0.85186171484E-03 0.85184994427E-03
 0.85387066654E-03 0.86236277011E-03 0.84805070789E-03 0.86258917912E-03 0.87514698400E-03
 0.88492819039E-03 0.89896827010E-03 0.92734770148E-03 0.97365144048E-03 0.10301225251E-02
 0.10822805629E-02 0.11176771015E-02 0.11301912543E-02 0.11183109365E-02 0.10832978407E-02
 0.10311443975E-02 0.97434901855E-03 0.92758602501E-03 0.89884812670E-03 0.88471181527E-03
 0.87511206455E-03 0.86289140260E-03 0.84866575403E-03 0.83743688397E-03 0.83218666736E-03
 0.83141090075E-03 0.83177409681E-03 0.83159309984E-03 0.83130828409E-03 0.83146461830E-03
 0.83146753504E-03 0.83088347481E-03 0.83147178457E-03 0.83667213980E-03 0.82184354875E-03
 0.83730516711E-03 0.85440484086E-03 0.87032676553E-03 0.88765852425E-03 0.91405034616E-03
 0.95591950158E-03 0.10115350288E-02 0.10701861110E-02 0.11179840480E-02 0.11443976288E-02
 0.11445278876E-02 0.11183108230E-02 0.10705477927E-02 0.10117477010E-02 0.95586062521E-03
 0.91371464948E-03 0.88716400181E-03 0.86986888357E-03 0.85417969199E-03 0.83743688376E-03
 0.82234549651E-03 0.81267852565E-03 0.80946775823E-03 0.81069709469E-03 0.81332495642E-03
 0.81506160416E-03 0.81486356248E-03 0.81276862253E-03 0.80989226631E-03 0.80858107177E-03
 0.81190062009E-03 0.79695414096E-03 0.81285804828E-03 0.83262521133E-03 0.85239163308E-03
 0.87157255498E-03 0.89488608140E-03 0.92942762095E-03 0.97830527420E-03 0.10362911639E-02
 0.10913631717E-02 0.11304275158E-02 0.11443979009E-02 0.11301916384E-02 0.10909478779E-02
 0.10357791847E-02 0.97776297533E-03 0.92887820928E-03 0.89431911720E-03 0.87098417633E-03
 0.85182614038E-03 0.83218666684E-03 0.81267852530E-03 0.79712919953E-03 0.78863657704E-03
 0.78728862167E-03 0.79043449316E-03 0.79431889220E-03 0.79584877966E-03 0.79388976137E-03
 0.78973159734E-03 0.78655786906E-03 0.78811423455E-03 0.77360277668E-03 0.78916824153E-03
 0.81009415908E-03 0.83193600903E-03 0.85192793653E-03 0.87213325707E-03 0.89888056687E-03
 0.93797699042E-03 0.98919562456E-03 0.10445205051E-02 0.10913628991E-02 0.11179840473E-02
 0.11176777578E-02 0.10905582126E-02 0.10435016690E-02 0.98827322037E-03 0.93733743262E-03
 0.89851293813E-03 0.87187192269E-03 0.85157938982E-03 0.83141090014E-03 0.80946775761E-03
 0.78863657666E-03 0.77336115958E-03 0.76603584875E-03 0.76562097218E-03 0.76864605268E-03
 0.77126706618E-03 0.77111095023E-03 0.76827165912E-03 0.76525751548E-03 0.76591916285E-03
 0.75194058826E-03 0.76679983499E-03 0.78800753276E-03 0.81110239918E-03 0.83174709673E-03
 0.84974289553E-03 0.87002672836E-03 0.89922393832E-03 0.94026409005E-03 0.98919573828E-03
 0.10362907793E-02 0.10701854530E-02 0.10822805616E-02 0.10695302611E-02 0.10352715964E-02
 0.98824511833E-03 0.93973561003E-03 0.89922010448E-03 0.87036706783E-03 0.85008295022E-03
 0.83177409643E-03 0.81069709411E-03 0.78728862115E-03 0.76603584846E-03 0.75138762792E-03
 0.74450191884E-03 0.74316708469E-03 0.74399848683E-03 0.74451600033E-03 0.74392705541E-03
 0.74316163709E-03 0.74473762178E-03 0.73136105866E-03 0.74525315959E-03 0.76625538451E-03
 0.79067959387E-03 0.81301987486E-03 0.83079691430E-03 0.84717521413E-03 0.86853671839E-03
 0.89922405126E-03 0.93797753685E-03 0.97830554905E-03 0.10115344857E-02 0.10301218676E-02
 0.10298779577E-02 0.10109424193E-02 0.97771098232E-03 0.93775001477E-03 0.89956197609E-03
 0.86936369164E-03 0.84818077991E-03 0.83159309996E-03 0.81332495617E-03 0.79043449275E-03
 0.76562097185E-03 0.74450191868E-03 0.73073230472E-03 0.72380030886E-03 0.72089837878E-03
 0.71983272502E-03 0.71988198854E-03 0.72108402116E-03 0.72419698746E-03 0.71280998009E-03
 0.72430808977E-03 0.74352408340E-03 0.76867468038E-03 0.79390413178E-03 0.81421563079E-03
 0.83018672123E-03 0.84717494076E-03 0.87002634167E-03 0.89888083950E-03 0.92942839407E-03
 0.95591977759E-03 0.97365105806E-03 0.97981865980E-03 0.97355348818E-03 0.95585735841E-03
 0.92959412606E-03 0.89941897583E-03 0.87094373410E-03 0.84832050338E-03 0.83130828470E-03
 0.81506160442E-03 0.79431889216E-03 0.76864605251E-03 0.74316708457E-03 0.72380030883E-03
 0.71231750256E-03 0.70637691600E-03 0.70328429848E-03 0.70227506478E-03 0.70347557471E-03
 0.70674429313E-03 0.69947742876E-03 0.70655855539E-03 0.72088821991E-03 0.74375879047E-03
 0.77082407837E-03 0.79526858115E-03 0.81421590346E-03 0.83079691348E-03 0.84974223530E-03
 0.87213270982E-03 0.89488635392E-03 0.91405089384E-03 0.92734781848E-03 0.93410576524E-03
 0.93422631344E-03 0.92768694285E-03 0.91455230311E-03 0.89548536929E-03 0.87277884229E-03
 0.85040699472E-03 0.83146461915E-03 0.81486356309E-03 0.79584877999E-03 0.77126706633E-03
 0.74399848689E-03 0.72089837882E-03 0.70637691604E-03 0.69920293811E-03 0.69562261141E-03
 0.69376236009E-03 0.69385613710E-03 0.69586122500E-03 0.69279111685E-03 0.69555882316E-03
 0.70298290734E-03 0.71935156651E-03 0.74403166781E-03 0.77082396563E-03 0.79390451784E-03
 0.81302053311E-03 0.83174709522E-03 0.85192727545E-03 0.87157216691E-03 0.88765863678E-03
 0.89896827237E-03 0.90575196205E-03 0.90819393737E-03 0.90617283023E-03 0.89961242683E-03
 0.88823716335E-03 0.87185625305E-03 0.85186171539E-03 0.83146753573E-03 0.81276862320E-03
 0.79388976190E-03 0.77111095059E-03 0.74451600057E-03 0.71983272519E-03 0.70328429861E-03
 0.69562261150E-03 0.69269585558E-03 0.69096020786E-03 0.69021076427E-03 0.69106498828E-03
 0.68914016299E-03 0.69080302671E-03 0.69335764164E-03 0.70168924362E-03 0.71935145358E-03
 0.74375824527E-03 0.76867440834E-03 0.79068014005E-03 0.81110305739E-03 0.83193600710E-03
 0.85239135724E-03 0.87032676276E-03 0.88492807665E-03 0.89617974066E-03 0.90285363066E-03
 0.90308850479E-03 0.89673435891E-03 0.88543538849E-03 0.87040436425E-03 0.85184994420E-03
 0.83088347505E-03 0.80989226669E-03 0.78973159772E-03 0.76827165946E-03 0.74392705567E-03
 0.71988198875E-03 0.70227506496E-03 0.69376236021E-03 0.69096020792E-03 0.68913900281E-03
 0.68738330717E-03 0.68740493858E-03 0.68351792392E-03 0.68725460153E-03 0.68988713547E-03
 0.69335791424E-03 0.70298329293E-03 0.72088794722E-03 0.74352331254E-03 0.76625511295E-03
 0.78800791959E-03 0.81009443170E-03 0.83262520936E-03 0.85440511041E-03 0.87514736670E-03
 0.89480349917E-03 0.91048408172E-03 0.91679846457E-03 0.91080327837E-03 0.89518122472E-03
 0.87520858065E-03 0.85387066595E-03 0.83147178430E-03 0.80858107175E-03 0.78655786914E-03
 0.76525751558E-03 0.74316163718E-03 0.72108402122E-03 0.70347557475E-03 0.69385613714E-03
 0.69021076430E-03 0.68738330717E-03 0.68353911543E-03 0.68153382111E-03 0.67615975435E-03
 0.68147969583E-03 0.68725432864E-03 0.69080302630E-03 0.69555948109E-03 0.70655910039E-03
 0.72430781696E-03 0.74525261494E-03 0.76679972371E-03 0.78916824315E-03 0.81285777584E-03
 0.83730516551E-03 0.86258983448E-03 0.88937012624E-03 0.91497752488E-03 0.93161859013E-03
 0.93171018655E-03 0.91516831391E-03 0.88945604866E-03 0.86236276925E-03 0.83667213920E-03
 0.81190061968E-03 0.78811423431E-03 0.76591916268E-03 0.74473762160E-03 0.72419698726E-03
 0.70674429292E-03 0.69586122483E-03 0.69106498815E-03 0.68740493848E-03 0.68153382108E-03
 0.67616899383E-03 0.67257590368E-03 0.67615986763E-03 0.68351753832E-03 0.68913950415E-03
 0.69279111598E-03 0.69947808604E-03 0.71281036464E-03 0.73136094525E-03 0.75194058924E-03
 0.77360289186E-03 0.79695375755E-03 0.82184289138E-03 0.84805070697E-03 0.87653786245E-03
 0.90657035346E-03 0.93161429897E-03 0.94162793995E-03 0.93161441413E-03 0.90656997069E-03
 0.87653720605E-03 0.84805070717E-03 0.82184354822E-03 0.79695414058E-03 0.77360277635E-03
 0.75194058790E-03 0.73136105823E-03 0.71280997961E-03 0.69947742829E-03 0.69279111644E-03
 0.68914016271E-03 0.68351792376E-03 0.67615975429E-03 0.67615986754E-03 0.67616954009E-03
 0.68153409474E-03 0.68740439345E-03 0.69106432931E-03 0.69586122355E-03 0.70674456367E-03
 0.72419698521E-03 0.74473773365E-03 0.76591970925E-03 0.78811450997E-03 0.81190007782E-03
 0.83667148354E-03 0.86236277009E-03 0.88945631984E-03 0.91516831078E-03 0.93171029685E-03
 0.93161913505E-03 0.91497779935E-03 0.88936958365E-03 0.86258917863E-03 0.83730516670E-03
 0.81285804797E-03 0.78916824125E-03 0.76679983462E-03 0.74525315909E-03 0.72430808911E-03
 0.70655855466E-03 0.69555882245E-03 0.69080302613E-03 0.68725460115E-03 0.68147969563E-03
 0.68351753815E-03 0.68153409470E-03 0.68353988847E-03 0.68738358153E-03 0.69021037938E-03
 0.69385586382E-03 0.70347557255E-03 0.72108374491E-03 0.74316124773E-03 0.76525778617E-03
 0.78655864110E-03 0.80858134762E-03 0.83147140311E-03 0.85387039730E-03 0.87520858250E-03
 0.89518095071E-03 0.91080288933E-03 0.91679873418E-03 0.91048485205E-03 0.89480377327E-03
 0.87514698390E-03 0.85440484077E-03 0.83262521130E-03 0.81009415909E-03 0.78800753267E-03
 0.76625538419E-03 0.74352408280E-03 0.72088821910E-03 0.70298290644E-03 0.69335764080E-03