   2   2   1   0
  0.1673183E+02  0.2472373E-09  0.2472373E-09  0.6321422E-09  0.5000000E-15
  1.000000000000000E-004
  CAR 
 unknown system                          
     15.00000000    -15.00000000 3001     -1.67465291      1.00000000
    -15.000  0.4282E+02  0.4282E+02  0.4282E+00  0.4282E+00
    -14.990 -0.8595E-01 -0.8592E-01  0.4274E+00  0.4274E+00
    -14.980 -0.8260E-01 -0.8253E-01  0.4266E+00  0.4265E+00
    -14.970 -0.7615E-01 -0.7603E-01  0.4258E+00  0.4258E+00
    -14.960 -0.6605E-01 -0.6588E-01  0.4251E+00  0.4251E+00
    -14.950 -0.5174E-01 -0.5151E-01  0.4246E+00  0.4246E+00
    -14.940 -0.3268E-01 -0.3237E-01  0.4243E+00  0.4243E+00
    -14.930 -0.8343E-02 -0.7958E-02  0.4242E+00  0.4242E+00
    -14.920  0.2175E-01  0.2222E-01  0.4244E+00  0.4244E+00
    -14.910  0.5802E-01  0.5858E-01  0.4250E+00  0.4250E+00
    -14.900  0.1008E+00  0.1014E+00  0.4260E+00  0.4260E+00
    -14.890  0.1503E+00  0.1510E+00  0.4275E+00  0.4275E+00
    -14.880  0.2066E+00  0.2074E+00  0.4296E+00  0.4296E+00
    -14.870  0.2697E+00  0.2706E+00  0.4323E+00  0.4323E+00
    -14.860  0.3393E+00  0.3403E+00  0.4357E+00  0.4357E+00
    -14.850  0.4151E+00  0.4162E+00  0.4398E+00  0.4399E+00
    -14.840  0.4965E+00  0.4977E+00  0.4448E+00  0.4449E+00
    -14.830  0.5827E+00  0.5840E+00  0.4506E+00  0.4507E+00
    -14.820  0.6728E+00  0.6741E+00  0.4573E+00  0.4574E+00
    -14.810  0.7658E+00  0.7671E+00  0.4650E+00  0.4651E+00
    -14.800  0.8602E+00  0.8616E+00  0.4736E+00  0.4737E+00
    -14.790  0.9548E+00  0.9561E+00  0.4832E+00  0.4833E+00
    -14.780  0.1048E+01  0.1049E+01  0.4936E+00  0.4938E+00
    -14.770  0.1138E+01  0.1140E+01  0.5050E+00  0.5052E+00
    -14.760  0.1224E+01  0.1226E+01  0.5173E+00  0.5174E+00
    -14.750  0.1304E+01  0.1305E+01  0.5303E+00  0.5305E+00
    -14.740  0.1377E+01  0.1378E+01  0.5441E+00  0.5443E+00
    -14.730  0.1440E+01  0.1441E+01  0.5585E+00  0.5587E+00
    -14.720  0.1493E+01  0.1494E+01  0.5734E+00  0.5736E+00
    -14.710  0.1535E+01  0.1536E+01  0.5888E+00  0.5890E+00
    -14.700  0.1565E+01  0.1565E+01  0.6044E+00  0.6046E+00
    -14.690  0.1582E+01  0.1582E+01  0.6202E+00  0.6204E+00
    -14.680  0.1586E+01  0.1586E+01  0.6361E+00  0.6363E+00
    -14.670  0.1577E+01  0.1577E+01  0.6518E+00  0.6521E+00
    -14.660  0.1555E+01  0.1554E+01  0.6674E+00  0.6676E+00
    -14.650  0.1520E+01  0.1519E+01  0.6826E+00  0.6828E+00
    -14.640  0.1473E+01  0.1473E+01  0.6973E+00  0.6975E+00
    -14.630  0.1416E+01  0.1415E+01  0.7115E+00  0.7117E+00
    -14.620  0.1349E+01  0.1348E+01  0.7250E+00  0.7252E+00
    -14.610  0.1273E+01  0.1272E+01  0.7377E+00  0.7379E+00
    -14.600  0.1191E+01  0.1190E+01  0.7496E+00  0.7498E+00
    -14.590  0.1103E+01  0.1102E+01  0.7606E+00  0.7608E+00
    -14.580  0.1011E+01  0.1010E+01  0.7708E+00  0.7709E+00
    -14.570  0.9173E+00  0.9159E+00  0.7799E+00  0.7801E+00
    -14.560  0.8226E+00  0.8212E+00  0.7882E+00  0.7883E+00
    -14.550  0.7286E+00  0.7273E+00  0.7954E+00  0.7955E+00
    -14.540  0.6366E+00  0.6353E+00  0.8018E+00  0.8019E+00
    -14.530  0.5479E+00  0.5467E+00  0.8073E+00  0.8074E+00
    -14.520  0.4635E+00  0.4624E+00  0.8119E+00  0.8120E+00
    -14.510  0.3843E+00  0.3832E+00  0.8158E+00  0.8158E+00
    -14.500  0.3109E+00  0.3099E+00  0.8189E+00  0.8189E+00
    -14.490  0.2438E+00  0.2429E+00  0.8213E+00  0.8213E+00
    -14.480  0.1834E+00  0.1826E+00  0.8231E+00  0.8232E+00
    -14.470  0.1298E+00  0.1291E+00  0.8244E+00  0.8245E+00
    -14.460  0.8298E-01  0.8237E-01  0.8253E+00  0.8253E+00
    -14.450  0.4282E-01  0.4230E-01  0.8257E+00  0.8257E+00
    -14.440  0.9048E-02  0.8614E-02  0.8258E+00  0.8258E+00
    -14.430 -0.1871E-01 -0.1907E-01  0.8256E+00  0.8256E+00
    -14.420 -0.4091E-01 -0.4118E-01  0.8252E+00  0.8252E+00
    -14.410 -0.5803E-01 -0.5824E-01  0.8246E+00  0.8246E+00
    -14.400 -0.7063E-01 -0.7077E-01  0.8239E+00  0.8239E+00
    -14.390 -0.7924E-01 -0.7934E-01  0.8231E+00  0.8231E+00
    -14.380 -0.8443E-01 -0.8449E-01  0.8223E+00  0.8223E+00
    -14.370 -0.8675E-01 -0.8676E-01  0.8214E+00  0.8214E+00
    -14.360 -0.8669E-01 -0.8667E-01  0.8205E+00  0.8205E+00
    -14.350 -0.8475E-01 -0.8471E-01  0.8197E+00  0.8197E+00
    -14.340 -0.8135E-01 -0.8130E-01  0.8189E+00  0.8189E+00
    -14.330 -0.7691E-01 -0.7684E-01  0.8181E+00  0.8181E+00
    -14.320 -0.7175E-01 -0.7168E-01  0.8174E+00  0.8174E+00
    -14.310 -0.6619E-01 -0.6611E-01  0.8167E+00  0.8167E+00
    -14.300 -0.6047E-01 -0.6039E-01  0.8161E+00  0.8161E+00
    -14.290 -0.5479E-01 -0.5472E-01  0.8156E+00  0.8156E+00
    -14.280 -0.4934E-01 -0.4926E-01  0.8151E+00  0.8151E+00
    -14.270 -0.4423E-01 -0.4416E-01  0.8146E+00  0.8146E+00
    -14.260 -0.3957E-01 -0.3951E-01  0.8142E+00  0.8142E+00
    -14.250 -0.3543E-01 -0.3537E-01  0.8139E+00  0.8139E+00
    -14.240 -0.3185E-01 -0.3181E-01  0.8136E+00  0.8136E+00
    -14.230 -0.2888E-01 -0.2884E-01  0.8133E+00  0.8133E+00
    -14.220 -0.2651E-01 -0.2649E-01  0.8130E+00  0.8130E+00
    -14.210 -0.2476E-01 -0.2475E-01  0.8128E+00  0.8128E+00
    -14.200 -0.2362E-01 -0.2361E-01  0.8125E+00  0.8125E+00
    -14.190 -0.2306E-01 -0.2306E-01  0.8123E+00  0.8123E+00
    -14.180 -0.2306E-01 -0.2307E-01  0.8121E+00  0.8121E+00
    -14.170 -0.2359E-01 -0.2361E-01  0.8118E+00  0.8118E+00
    -14.160 -0.2460E-01 -0.2463E-01  0.8116E+00  0.8116E+00
    -14.150 -0.2606E-01 -0.2609E-01  0.8113E+00  0.8113E+00
    -14.140 -0.2788E-01 -0.2792E-01  0.8110E+00  0.8110E+00
    -14.130 -0.3001E-01 -0.3005E-01  0.8107E+00  0.8107E+00
    -14.120 -0.3235E-01 -0.3239E-01  0.8104E+00  0.8104E+00
    -14.110 -0.3481E-01 -0.3485E-01  0.8101E+00  0.8101E+00
    -14.100 -0.3725E-01 -0.3730E-01  0.8097E+00  0.8097E+00
    -14.090 -0.3955E-01 -0.3959E-01  0.8093E+00  0.8093E+00
    -14.080 -0.4153E-01 -0.4156E-01  0.8089E+00  0.8089E+00
    -14.070 -0.4302E-01 -0.4304E-01  0.8085E+00  0.8085E+00
    -14.060 -0.4379E-01 -0.4380E-01  0.8080E+00  0.8080E+00
    -14.050 -0.4364E-01 -0.4363E-01  0.8076E+00  0.8076E+00
    -14.040 -0.4230E-01 -0.4227E-01  0.8072E+00  0.8072E+00
    -14.030 -0.3952E-01 -0.3946E-01  0.8068E+00  0.8068E+00
    -14.020 -0.3502E-01 -0.3493E-01  0.8064E+00  0.8064E+00
    -14.010 -0.2853E-01 -0.2840E-01  0.8061E+00  0.8061E+00
    -14.000 -0.1975E-01 -0.1958E-01  0.8059E+00  0.8059E+00
    -13.990 -0.8423E-02 -0.8207E-02  0.8059E+00  0.8059E+00
    -13.980  0.5701E-02  0.5967E-02  0.8059E+00  0.8059E+00
    -13.970  0.2284E-01  0.2316E-01  0.8061E+00  0.8061E+00
    -13.960  0.4319E-01  0.4356E-01  0.8066E+00  0.8066E+00
    -13.950  0.6686E-01  0.6730E-01  0.8072E+00  0.8073E+00
    -13.940  0.9394E-01  0.9443E-01  0.8082E+00  0.8082E+00
    -13.930  0.1244E+00  0.1250E+00  0.8094E+00  0.8094E+00
    -13.920  0.1582E+00  0.1588E+00  0.8110E+00  0.8110E+00
    -13.910  0.1951E+00  0.1958E+00  0.8130E+00  0.8130E+00
    -13.900  0.2350E+00  0.2357E+00  0.8153E+00  0.8154E+00
    -13.890  0.2774E+00  0.2781E+00  0.8181E+00  0.8181E+00
    -13.880  0.3219E+00  0.3226E+00  0.8213E+00  0.8214E+00
    -13.870  0.3680E+00  0.3687E+00  0.8250E+00  0.8250E+00
    -13.860  0.4150E+00  0.4158E+00  0.8291E+00  0.8292E+00
    -13.850  0.4624E+00  0.4632E+00  0.8338E+00  0.8338E+00
    -13.840  0.5093E+00  0.5101E+00  0.8388E+00  0.8389E+00
    -13.830  0.5550E+00  0.5558E+00  0.8444E+00  0.8445E+00
    -13.820  0.5988E+00  0.5995E+00  0.8504E+00  0.8505E+00
    -13.810  0.6397E+00  0.6404E+00  0.8568E+00  0.8569E+00
    -13.800  0.6772E+00  0.6778E+00  0.8636E+00  0.8637E+00
    -13.790  0.7104E+00  0.7109E+00  0.8707E+00  0.8708E+00
    -13.780  0.7387E+00  0.7391E+00  0.8780E+00  0.8782E+00
    -13.770  0.7615E+00  0.7618E+00  0.8857E+00  0.8858E+00
    -13.760  0.7784E+00  0.7786E+00  0.8934E+00  0.8936E+00
    -13.750  0.7890E+00  0.7891E+00  0.9013E+00  0.9015E+00
    -13.740  0.7931E+00  0.7931E+00  0.9093E+00  0.9094E+00
    -13.730  0.7906E+00  0.7905E+00  0.9172E+00  0.9173E+00
    -13.720  0.7815E+00  0.7813E+00  0.9250E+00  0.9251E+00
    -13.710  0.7661E+00  0.7658E+00  0.9326E+00  0.9328E+00
    -13.700  0.7447E+00  0.7443E+00  0.9401E+00  0.9402E+00
    -13.690  0.7177E+00  0.7172E+00  0.9473E+00  0.9474E+00
    -13.680  0.6856E+00  0.6850E+00  0.9541E+00  0.9542E+00
    -13.670  0.6491E+00  0.6484E+00  0.9606E+00  0.9607E+00
    -13.660  0.6089E+00  0.6082E+00  0.9667E+00  0.9668E+00
    -13.650  0.5657E+00  0.5650E+00  0.9724E+00  0.9725E+00
    -13.640  0.5204E+00  0.5196E+00  0.9776E+00  0.9777E+00
    -13.630  0.4737E+00  0.4729E+00  0.9823E+00  0.9824E+00
    -13.620  0.4264E+00  0.4256E+00  0.9866E+00  0.9866E+00
    -13.610  0.3792E+00  0.3784E+00  0.9904E+00  0.9904E+00
    -13.600  0.3328E+00  0.3320E+00  0.9937E+00  0.9937E+00
    -13.590  0.2879E+00  0.2871E+00  0.9966E+00  0.9966E+00
    -13.580  0.2450E+00  0.2442E+00  0.9990E+00  0.9991E+00
    -13.570  0.2045E+00  0.2038E+00  0.1001E+01  0.1001E+01
    -13.560  0.1668E+00  0.1662E+00  0.1003E+01  0.1003E+01
    -13.550  0.1322E+00  0.1317E+00  0.1004E+01  0.1004E+01
    -13.540  0.1010E+00  0.1005E+00  0.1005E+01  0.1005E+01
    -13.530  0.7307E-01  0.7263E-01  0.1006E+01  0.1006E+01
    -13.520  0.4859E-01  0.4821E-01  0.1006E+01  0.1006E+01
    -13.510  0.2747E-01  0.2714E-01  0.1007E+01  0.1007E+01
    -13.500  0.9584E-02  0.9306E-02  0.1007E+01  0.1007E+01
    -13.490 -0.5229E-02 -0.5456E-02  0.1007E+01  0.1007E+01
    -13.480 -0.1718E-01 -0.1736E-01  0.1006E+01  0.1006E+01
    -13.470 -0.2652E-01 -0.2665E-01  0.1006E+01  0.1006E+01
    -13.460 -0.3350E-01 -0.3359E-01  0.1006E+01  0.1006E+01
    -13.450 -0.3839E-01 -0.3846E-01  0.1005E+01  0.1005E+01
    -13.440 -0.4149E-01 -0.4153E-01  0.1005E+01  0.1005E+01
    -13.430 -0.4305E-01 -0.4307E-01  0.1005E+01  0.1005E+01
    -13.420 -0.4334E-01 -0.4334E-01  0.1004E+01  0.1004E+01
    -13.410 -0.4261E-01 -0.4259E-01  0.1004E+01  0.1004E+01
    -13.400 -0.4108E-01 -0.4104E-01  0.1003E+01  0.1003E+01
    -13.390 -0.3894E-01 -0.3890E-01  0.1003E+01  0.1003E+01
    -13.380 -0.3638E-01 -0.3634E-01  0.1003E+01  0.1003E+01
    -13.370 -0.3356E-01 -0.3351E-01  0.1002E+01  0.1002E+01
    -13.360 -0.3059E-01 -0.3054E-01  0.1002E+01  0.1002E+01
    -13.350 -0.2759E-01 -0.2754E-01  0.1002E+01  0.1002E+01
    -13.340 -0.2465E-01 -0.2460E-01  0.1001E+01  0.1001E+01
    -13.330 -0.2182E-01 -0.2177E-01  0.1001E+01  0.1001E+01
    -13.320 -0.1916E-01 -0.1911E-01  0.1001E+01  0.1001E+01
    -13.310 -0.1670E-01 -0.1666E-01  0.1001E+01  0.1001E+01
    -13.300 -0.1446E-01 -0.1443E-01  0.1001E+01  0.1001E+01
    -13.290 -0.1247E-01 -0.1243E-01  0.1001E+01  0.1001E+01
    -13.280 -0.1071E-01 -0.1068E-01  0.1000E+01  0.1000E+01
    -13.270 -0.9198E-02 -0.9172E-02  0.1000E+01  0.1000E+01
    -13.260 -0.7919E-02 -0.7898E-02  0.1000E+01  0.1000E+01
    -13.250 -0.6871E-02 -0.6852E-02  0.1000E+01  0.1000E+01
    -13.240 -0.6044E-02 -0.6028E-02  0.1000E+01  0.1000E+01
    -13.230 -0.5431E-02 -0.5418E-02  0.1000E+01  0.1000E+01
    -13.220 -0.5026E-02 -0.5016E-02  0.1000E+01  0.1000E+01
    -13.210 -0.4825E-02 -0.4817E-02  0.1000E+01  0.1000E+01
    -13.200 -0.4824E-02 -0.4819E-02  0.1000E+01  0.1000E+01
    -13.190 -0.5025E-02 -0.5021E-02  0.9999E+00  0.9999E+00
    -13.180 -0.5428E-02 -0.5426E-02  0.9998E+00  0.9998E+00
    -13.170 -0.6040E-02 -0.6039E-02  0.9998E+00  0.9998E+00
    -13.160 -0.6865E-02 -0.6866E-02  0.9997E+00  0.9997E+00
    -13.150 -0.7913E-02 -0.7915E-02  0.9996E+00  0.9996E+00
    -13.140 -0.9189E-02 -0.9193E-02  0.9995E+00  0.9995E+00
    -13.130 -0.1070E-01 -0.1071E-01  0.9994E+00  0.9994E+00
    -13.120 -0.1246E-01 -0.1246E-01  0.9993E+00  0.9993E+00
    -13.110 -0.1445E-01 -0.1446E-01  0.9992E+00  0.9992E+00
    -13.100 -0.1668E-01 -0.1669E-01  0.9990E+00  0.9990E+00
    -13.090 -0.1914E-01 -0.1915E-01  0.9988E+00  0.9988E+00
    -13.080 -0.2180E-01 -0.2181E-01  0.9986E+00  0.9986E+00
    -13.070 -0.2463E-01 -0.2464E-01  0.9983E+00  0.9983E+00
    -13.060 -0.2757E-01 -0.2759E-01  0.9981E+00  0.9981E+00
    -13.050 -0.3057E-01 -0.3058E-01  0.9978E+00  0.9978E+00
    -13.040 -0.3354E-01 -0.3355E-01  0.9974E+00  0.9974E+00
    -13.030 -0.3637E-01 -0.3638E-01  0.9971E+00  0.9971E+00
    -13.020 -0.3893E-01 -0.3894E-01  0.9967E+00  0.9967E+00
    -13.010 -0.4106E-01 -0.4107E-01  0.9963E+00  0.9963E+00
    -13.000 -0.4260E-01 -0.4261E-01  0.9958E+00  0.9958E+00
    -12.990 -0.4334E-01 -0.4334E-01  0.9954E+00  0.9954E+00
    -12.980 -0.4306E-01 -0.4305E-01  0.9950E+00  0.9950E+00
    -12.970 -0.4150E-01 -0.4149E-01  0.9946E+00  0.9946E+00
    -12.960 -0.3842E-01 -0.3840E-01  0.9942E+00  0.9942E+00
    -12.950 -0.3353E-01 -0.3351E-01  0.9938E+00  0.9938E+00
    -12.940 -0.2656E-01 -0.2653E-01  0.9936E+00  0.9936E+00
    -12.930 -0.1724E-01 -0.1720E-01  0.9934E+00  0.9934E+00
    -12.920 -0.5308E-02 -0.5254E-02  0.9934E+00  0.9934E+00
    -12.910  0.9487E-02  0.9554E-02  0.9934E+00  0.9934E+00
    -12.900  0.2735E-01  0.2743E-01  0.9937E+00  0.9937E+00
    -12.890  0.4846E-01  0.4855E-01  0.9942E+00  0.9942E+00
    -12.880  0.7292E-01  0.7303E-01  0.9949E+00  0.9949E+00
    -12.870  0.1008E+00  0.1009E+00  0.9959E+00  0.9959E+00
    -12.860  0.1320E+00  0.1322E+00  0.9973E+00  0.9973E+00
    -12.850  0.1666E+00  0.1667E+00  0.9989E+00  0.9989E+00
    -12.840  0.2042E+00  0.2044E+00  0.1001E+01  0.1001E+01
    -12.830  0.2447E+00  0.2449E+00  0.1003E+01  0.1003E+01
    -12.820  0.2876E+00  0.2878E+00  0.1006E+01  0.1006E+01
    -12.810  0.3326E+00  0.3327E+00  0.1010E+01  0.1010E+01
    -12.800  0.3789E+00  0.3791E+00  0.1013E+01  0.1013E+01
    -12.790  0.4261E+00  0.4263E+00  0.1018E+01  0.1018E+01
    -12.780  0.4734E+00  0.4736E+00  0.1022E+01  0.1022E+01
    -12.770  0.5201E+00  0.5203E+00  0.1028E+01  0.1028E+01
    -12.760  0.5655E+00  0.5657E+00  0.1033E+01  0.1033E+01
    -12.750  0.6086E+00  0.6088E+00  0.1039E+01  0.1039E+01
    -12.740  0.6489E+00  0.6490E+00  0.1046E+01  0.1046E+01
    -12.730  0.6854E+00  0.6855E+00  0.1053E+01  0.1053E+01
    -12.720  0.7175E+00  0.7176E+00  0.1060E+01  0.1060E+01
    -12.710  0.7445E+00  0.7446E+00  0.1067E+01  0.1067E+01
    -12.700  0.7660E+00  0.7661E+00  0.1075E+01  0.1075E+01
    -12.690  0.7814E+00  0.7815E+00  0.1083E+01  0.1083E+01
    -12.680  0.7905E+00  0.7906E+00  0.1091E+01  0.1091E+01
    -12.670  0.7931E+00  0.7931E+00  0.1099E+01  0.1099E+01
    -12.660  0.7890E+00  0.7890E+00  0.1107E+01  0.1107E+01
    -12.650  0.7785E+00  0.7784E+00  0.1114E+01  0.1114E+01
    -12.640  0.7616E+00  0.7615E+00  0.1122E+01  0.1122E+01
    -12.630  0.7388E+00  0.7387E+00  0.1129E+01  0.1129E+01
    -12.620  0.7106E+00  0.7104E+00  0.1136E+01  0.1136E+01
    -12.610  0.6774E+00  0.6773E+00  0.1143E+01  0.1143E+01
    -12.600  0.6400E+00  0.6398E+00  0.1150E+01  0.1150E+01
    -12.590  0.5990E+00  0.5988E+00  0.1156E+01  0.1156E+01
    -12.580  0.5553E+00  0.5551E+00  0.1161E+01  0.1161E+01
    -12.570  0.5096E+00  0.5094E+00  0.1166E+01  0.1166E+01
    -12.560  0.4626E+00  0.4624E+00  0.1171E+01  0.1171E+01
    -12.550  0.4153E+00  0.4151E+00  0.1175E+01  0.1175E+01
    -12.540  0.3682E+00  0.3680E+00  0.1179E+01  0.1179E+01
    -12.530  0.3221E+00  0.3220E+00  0.1182E+01  0.1182E+01
    -12.520  0.2776E+00  0.2775E+00  0.1185E+01  0.1185E+01
    -12.510  0.2352E+00  0.2351E+00  0.1187E+01  0.1187E+01
    -12.500  0.1954E+00  0.1952E+00  0.1189E+01  0.1189E+01
    -12.490  0.1584E+00  0.1583E+00  0.1191E+01  0.1191E+01
    -12.480  0.1246E+00  0.1245E+00  0.1192E+01  0.1192E+01
    -12.470  0.9412E-01  0.9400E-01  0.1193E+01  0.1193E+01
    -12.460  0.6703E-01  0.6693E-01  0.1193E+01  0.1193E+01
    -12.450  0.4335E-01  0.4326E-01  0.1194E+01  0.1194E+01
    -12.440  0.2299E-01  0.2292E-01  0.1194E+01  0.1194E+01
    -12.430  0.5845E-02  0.5781E-02  0.1194E+01  0.1194E+01
    -12.420 -0.8278E-02 -0.8329E-02  0.1194E+01  0.1194E+01
    -12.410 -0.1959E-01 -0.1963E-01  0.1194E+01  0.1194E+01
    -12.400 -0.2835E-01 -0.2838E-01  0.1194E+01  0.1194E+01
    -12.390 -0.3482E-01 -0.3484E-01  0.1193E+01  0.1193E+01
    -12.380 -0.3927E-01 -0.3928E-01  0.1193E+01  0.1193E+01
    -12.370 -0.4198E-01 -0.4199E-01  0.1192E+01  0.1192E+01
    -12.360 -0.4322E-01 -0.4322E-01  0.1192E+01  0.1192E+01
    -12.350 -0.4325E-01 -0.4325E-01  0.1192E+01  0.1192E+01
    -12.340 -0.4231E-01 -0.4230E-01  0.1191E+01  0.1191E+01
    -12.330 -0.4061E-01 -0.4060E-01  0.1191E+01  0.1191E+01
    -12.320 -0.3836E-01 -0.3835E-01  0.1190E+01  0.1190E+01
    -12.310 -0.3572E-01 -0.3571E-01  0.1190E+01  0.1190E+01
    -12.300 -0.3284E-01 -0.3283E-01  0.1190E+01  0.1190E+01
    -12.290 -0.2985E-01 -0.2983E-01  0.1189E+01  0.1189E+01
    -12.280 -0.2684E-01 -0.2682E-01  0.1189E+01  0.1189E+01
    -12.270 -0.2389E-01 -0.2388E-01  0.1189E+01  0.1189E+01
    -12.260 -0.2107E-01 -0.2106E-01  0.1189E+01  0.1189E+01
    -12.250 -0.1842E-01 -0.1841E-01  0.1188E+01  0.1188E+01
    -12.240 -0.1597E-01 -0.1596E-01  0.1188E+01  0.1188E+01
    -12.230 -0.1373E-01 -0.1372E-01  0.1188E+01  0.1188E+01
    -12.220 -0.1172E-01 -0.1171E-01  0.1188E+01  0.1188E+01
    -12.210 -0.9922E-02 -0.9915E-02  0.1188E+01  0.1188E+01
    -12.200 -0.8340E-02 -0.8334E-02  0.1188E+01  0.1188E+01
    -12.190 -0.6960E-02 -0.6955E-02  0.1188E+01  0.1188E+01
    -12.180 -0.5769E-02 -0.5764E-02  0.1188E+01  0.1188E+01
    -12.170 -0.4748E-02 -0.4744E-02  0.1188E+01  0.1188E+01
    -12.160 -0.3882E-02 -0.3879E-02  0.1188E+01  0.1188E+01
    -12.150 -0.3153E-02 -0.3151E-02  0.1188E+01  0.1188E+01
    -12.140 -0.2545E-02 -0.2543E-02  0.1188E+01  0.1188E+01
    -12.130 -0.2041E-02 -0.2039E-02  0.1188E+01  0.1188E+01
    -12.120 -0.1626E-02 -0.1625E-02  0.1188E+01  0.1188E+01
    -12.110 -0.1288E-02 -0.1286E-02  0.1188E+01  0.1188E+01
    -12.100 -0.1013E-02 -0.1012E-02  0.1188E+01  0.1188E+01
    -12.090 -0.7928E-03 -0.7920E-03  0.1188E+01  0.1188E+01
    -12.080 -0.6164E-03 -0.6158E-03  0.1188E+01  0.1188E+01
    -12.070 -0.4764E-03 -0.4759E-03  0.1188E+01  0.1188E+01
    -12.060 -0.3661E-03 -0.3657E-03  0.1188E+01  0.1188E+01
    -12.050 -0.2796E-03 -0.2793E-03  0.1188E+01  0.1188E+01
    -12.040 -0.2124E-03 -0.2121E-03  0.1188E+01  0.1188E+01
    -12.030 -0.1603E-03 -0.1601E-03  0.1188E+01  0.1188E+01
    -12.020 -0.1204E-03 -0.1202E-03  0.1188E+01  0.1188E+01
    -12.010 -0.8983E-04 -0.8972E-04  0.1188E+01  0.1188E+01
    -12.000 -0.6667E-04 -0.6659E-04  0.1188E+01  0.1188E+01
    -11.990 -0.4920E-04 -0.4914E-04  0.1188E+01  0.1188E+01
    -11.980 -0.3610E-04 -0.3606E-04  0.1188E+01  0.1188E+01
    -11.970 -0.2634E-04 -0.2631E-04  0.1188E+01  0.1188E+01
    -11.960 -0.1912E-04 -0.1909E-04  0.1188E+01  0.1188E+01
    -11.950 -0.1379E-04 -0.1377E-04  0.1188E+01  0.1188E+01
    -11.940 -0.9898E-05 -0.9885E-05  0.1188E+01  0.1188E+01
    -11.930 -0.7064E-05 -0.7054E-05  0.1188E+01  0.1188E+01
    -11.920 -0.5013E-05 -0.5006E-05  0.1188E+01  0.1188E+01
    -11.910 -0.3539E-05 -0.3534E-05  0.1188E+01  0.1188E+01
    -11.900 -0.2484E-05 -0.2481E-05  0.1188E+01  0.1188E+01
    -11.890 -0.1734E-05 -0.1732E-05  0.1188E+01  0.1188E+01
    -11.880 -0.1204E-05 -0.1203E-05  0.1188E+01  0.1188E+01
    -11.870 -0.8317E-06 -0.8305E-06  0.1188E+01  0.1188E+01
    -11.860 -0.5713E-06 -0.5704E-06  0.1188E+01  0.1188E+01
    -11.850 -0.3903E-06 -0.3897E-06  0.1188E+01  0.1188E+01
    -11.840 -0.2652E-06 -0.2648E-06  0.1188E+01  0.1188E+01
    -11.830 -0.1793E-06 -0.1790E-06  0.1188E+01  0.1188E+01
    -11.820 -0.1205E-06 -0.1203E-06  0.1188E+01  0.1188E+01
    -11.810 -0.8059E-07 -0.8045E-07  0.1188E+01  0.1188E+01
    -11.800 -0.5360E-07 -0.5351E-07  0.1188E+01  0.1188E+01
    -11.790 -0.3546E-07 -0.3540E-07  0.1188E+01  0.1188E+01
    -11.780 -0.2334E-07 -0.2330E-07  0.1188E+01  0.1188E+01
    -11.770 -0.1527E-07 -0.1525E-07  0.1188E+01  0.1188E+01
    -11.760 -0.9946E-08 -0.9928E-08  0.1188E+01  0.1188E+01
    -11.750 -0.6442E-08 -0.6430E-08  0.1188E+01  0.1188E+01
    -11.740 -0.4150E-08 -0.4143E-08  0.1188E+01  0.1188E+01
    -11.730 -0.2660E-08 -0.2655E-08  0.1188E+01  0.1188E+01
    -11.720 -0.1695E-08 -0.1692E-08  0.1188E+01  0.1188E+01
    -11.710 -0.1075E-08 -0.1073E-08  0.1188E+01  0.1188E+01
    -11.700 -0.6782E-09 -0.6769E-09  0.1188E+01  0.1188E+01
    -11.690 -0.4256E-09 -0.4248E-09  0.1188E+01  0.1188E+01
    -11.680 -0.2657E-09 -0.2652E-09  0.1188E+01  0.1188E+01
    -11.670 -0.1650E-09 -0.1646E-09  0.1188E+01  0.1188E+01
    -11.660 -0.1019E-09 -0.1017E-09  0.1188E+01  0.1188E+01
    -11.650 -0.6262E-10 -0.6250E-10  0.1188E+01  0.1188E+01
    -11.640 -0.3828E-10 -0.3820E-10  0.1188E+01  0.1188E+01
    -11.630 -0.2328E-10 -0.2323E-10  0.1188E+01  0.1188E+01
    -11.620 -0.1408E-10 -0.1406E-10  0.1188E+01  0.1188E+01
    -11.610 -0.8472E-11 -0.8452E-11  0.1188E+01  0.1188E+01
    -11.600 -0.5075E-11 -0.5067E-11  0.1188E+01  0.1188E+01
    -11.590 -0.3023E-11 -0.3014E-11  0.1188E+01  0.1188E+01
    -11.580 -0.1786E-11 -0.1786E-11  0.1188E+01  0.1188E+01
    -11.570 -0.1057E-11 -0.1053E-11  0.1188E+01  0.1188E+01
    -11.560 -0.6203E-12 -0.6162E-12  0.1188E+01  0.1188E+01
    -11.550 -0.3580E-12 -0.3622E-12  0.1188E+01  0.1188E+01
    -11.540 -0.2082E-12 -0.2040E-12  0.1188E+01  0.1188E+01
    -11.530 -0.1207E-12 -0.1207E-12  0.1188E+01  0.1188E+01
    -11.520 -0.7078E-13 -0.7078E-13  0.1188E+01  0.1188E+01
    -11.510 -0.3747E-13 -0.3747E-13  0.1188E+01  0.1188E+01
    -11.500 -0.2498E-13 -0.2498E-13  0.1188E+01  0.1188E+01
    -11.490 -0.1249E-13 -0.1249E-13  0.1188E+01  0.1188E+01
    -11.480 -0.8327E-14 -0.8327E-14  0.1188E+01  0.1188E+01
    -11.470 -0.4163E-14 -0.4163E-14  0.1188E+01  0.1188E+01
    -11.460 -0.3477E-21 -0.3495E-21  0.1188E+01  0.1188E+01
    -11.450 -0.4163E-14 -0.4163E-14  0.1188E+01  0.1188E+01
    -11.440 -0.1444E-20 -0.1452E-20  0.1188E+01  0.1188E+01
    -11.430 -0.2921E-20 -0.2936E-20  0.1188E+01  0.1188E+01
    -11.420 -0.5877E-20 -0.5906E-20  0.1188E+01  0.1188E+01
    -11.410 -0.1176E-19 -0.1182E-19  0.1188E+01  0.1188E+01
    -11.400 -0.2343E-19 -0.2355E-19  0.1188E+01  0.1188E+01
    -11.390 -0.4643E-19 -0.4666E-19  0.1188E+01  0.1188E+01
    -11.380 -0.9154E-19 -0.9199E-19  0.1188E+01  0.1188E+01
    -11.370 -0.1795E-18 -0.1804E-18  0.1188E+01  0.1188E+01
    -11.360 -0.3504E-18 -0.3521E-18  0.1188E+01  0.1188E+01
    -11.350 -0.6803E-18 -0.6836E-18  0.1188E+01  0.1188E+01
    -11.340 -0.1314E-17 -0.1320E-17  0.1188E+01  0.1188E+01
    -11.330 -0.2525E-17 -0.2537E-17  0.1188E+01  0.1188E+01
    -11.320 -0.4828E-17 -0.4851E-17  0.1188E+01  0.1188E+01
    -11.310 -0.9184E-17 -0.9227E-17  0.1188E+01  0.1188E+01
    -11.300 -0.1738E-16 -0.1746E-16  0.1188E+01  0.1188E+01
    -11.290 -0.3273E-16 -0.3288E-16  0.1188E+01  0.1188E+01
    -11.280 -0.6130E-16 -0.6158E-16  0.1188E+01  0.1188E+01
    -11.270 -0.1142E-15 -0.1148E-15  0.1188E+01  0.1188E+01
    -11.260 -0.2118E-15 -0.2128E-15  0.1188E+01  0.1188E+01
    -11.250 -0.3907E-15 -0.3925E-15  0.1188E+01  0.1188E+01
    -11.240 -0.7171E-15 -0.7202E-15  0.1188E+01  0.1188E+01
    -11.230 -0.1309E-14 -0.1315E-14  0.1188E+01  0.1188E+01
    -11.220 -0.2378E-14 -0.2388E-14  0.1188E+01  0.1188E+01
    -11.210 -0.4298E-14 -0.4316E-14  0.1188E+01  0.1188E+01
    -11.200 -0.7726E-14 -0.7759E-14  0.1187E+01  0.1187E+01
    -11.190 -0.1382E-13 -0.1388E-13  0.1187E+01  0.1187E+01
    -11.180 -0.2251E-13 -0.2261E-13  0.1187E+01  0.1187E+01
    -11.170 -0.4354E-13 -0.4372E-13  0.1187E+01  0.1187E+01
    -11.160 -0.7459E-13 -0.7491E-13  0.1187E+01  0.1187E+01
    -11.150 -0.1302E-12 -0.1307E-12  0.1187E+01  0.1187E+01
    -11.140 -0.2259E-12 -0.2268E-12  0.1187E+01  0.1187E+01
    -11.130 -0.3937E-12 -0.3953E-12  0.1187E+01  0.1187E+01
    -11.120 -0.6778E-12 -0.6806E-12  0.1187E+01  0.1187E+01
    -11.110 -0.1163E-11 -0.1168E-11  0.1187E+01  0.1187E+01
    -11.100 -0.1985E-11 -0.1993E-11  0.1187E+01  0.1187E+01
    -11.090 -0.3370E-11 -0.3381E-11  0.1187E+01  0.1187E+01
    -11.080 -0.5690E-11 -0.5712E-11  0.1187E+01  0.1187E+01
    -11.070 -0.9562E-11 -0.9598E-11  0.1187E+01  0.1187E+01
    -11.060 -0.1598E-10 -0.1604E-10  0.1187E+01  0.1187E+01
    -11.050 -0.2657E-10 -0.2667E-10  0.1187E+01  0.1187E+01
    -11.040 -0.4395E-10 -0.4411E-10  0.1187E+01  0.1187E+01
    -11.030 -0.7231E-10 -0.7257E-10  0.1187E+01  0.1187E+01
    -11.020 -0.1184E-09 -0.1188E-09  0.1187E+01  0.1187E+01
    -11.010 -0.1927E-09 -0.1934E-09  0.1187E+01  0.1187E+01
    -11.000 -0.3122E-09 -0.3133E-09  0.1187E+01  0.1187E+01
    -10.990 -0.5031E-09 -0.5048E-09  0.1187E+01  0.1187E+01
    -10.980 -0.8064E-09 -0.8092E-09  0.1187E+01  0.1187E+01
    -10.970 -0.1286E-08 -0.1290E-08  0.1187E+01  0.1187E+01
    -10.960 -0.2040E-08 -0.2047E-08  0.1187E+01  0.1187E+01
    -10.950 -0.3219E-08 -0.3229E-08  0.1187E+01  0.1187E+01
    -10.940 -0.5052E-08 -0.5068E-08  0.1187E+01  0.1187E+01
    -10.930 -0.7888E-08 -0.7913E-08  0.1187E+01  0.1187E+01
    -10.920 -0.1225E-07 -0.1229E-07  0.1187E+01  0.1187E+01
    -10.910 -0.1893E-07 -0.1899E-07  0.1187E+01  0.1187E+01
    -10.900 -0.2909E-07 -0.2918E-07  0.1187E+01  0.1187E+01
    -10.890 -0.4446E-07 -0.4460E-07  0.1187E+01  0.1187E+01
    -10.880 -0.6760E-07 -0.6781E-07  0.1187E+01  0.1187E+01
    -10.870 -0.1022E-06 -0.1026E-06  0.1187E+01  0.1187E+01
    -10.860 -0.1538E-06 -0.1543E-06  0.1187E+01  0.1187E+01
    -10.850 -0.2302E-06 -0.2309E-06  0.1187E+01  0.1187E+01
    -10.840 -0.3426E-06 -0.3436E-06  0.1187E+01  0.1187E+01
    -10.830 -0.5072E-06 -0.5087E-06  0.1187E+01  0.1187E+01
    -10.820 -0.7469E-06 -0.7490E-06  0.1187E+01  0.1187E+01
    -10.810 -0.1094E-05 -0.1097E-05  0.1187E+01  0.1187E+01
    -10.800 -0.1593E-05 -0.1598E-05  0.1187E+01  0.1187E+01
    -10.790 -0.2309E-05 -0.2315E-05  0.1187E+01  0.1187E+01
    -10.780 -0.3327E-05 -0.3336E-05  0.1187E+01  0.1187E+01
    -10.770 -0.4768E-05 -0.4781E-05  0.1187E+01  0.1187E+01
    -10.760 -0.6797E-05 -0.6814E-05  0.1187E+01  0.1187E+01
    -10.750 -0.9635E-05 -0.9660E-05  0.1187E+01  0.1187E+01
    -10.740 -0.1358E-04 -0.1362E-04  0.1187E+01  0.1187E+01
    -10.730 -0.1905E-04 -0.1909E-04  0.1187E+01  0.1187E+01
    -10.720 -0.2656E-04 -0.2662E-04  0.1187E+01  0.1187E+01
    -10.710 -0.3683E-04 -0.3692E-04  0.1187E+01  0.1187E+01
    -10.700 -0.5079E-04 -0.5091E-04  0.1187E+01  0.1187E+01
    -10.690 -0.6965E-04 -0.6981E-04  0.1187E+01  0.1187E+01
    -10.680 -0.9498E-04 -0.9519E-04  0.1187E+01  0.1187E+01
    -10.670 -0.1288E-03 -0.1291E-03  0.1187E+01  0.1187E+01
    -10.660 -0.1736E-03 -0.1740E-03  0.1187E+01  0.1187E+01
    -10.650 -0.2328E-03 -0.2333E-03  0.1187E+01  0.1187E+01
    -10.640 -0.3103E-03 -0.3110E-03  0.1187E+01  0.1187E+01
    -10.630 -0.4113E-03 -0.4121E-03  0.1187E+01  0.1187E+01
    -10.620 -0.5420E-03 -0.5431E-03  0.1187E+01  0.1187E+01
    -10.610 -0.7100E-03 -0.7114E-03  0.1187E+01  0.1187E+01
    -10.600 -0.9247E-03 -0.9265E-03  0.1187E+01  0.1187E+01
    -10.590 -0.1197E-02 -0.1199E-02  0.1187E+01  0.1187E+01
    -10.580 -0.1541E-02 -0.1544E-02  0.1187E+01  0.1187E+01
    -10.570 -0.1971E-02 -0.1974E-02  0.1187E+01  0.1187E+01
    -10.560 -0.2506E-02 -0.2510E-02  0.1187E+01  0.1187E+01
    -10.550 -0.3167E-02 -0.3172E-02  0.1187E+01  0.1187E+01
    -10.540 -0.3977E-02 -0.3984E-02  0.1187E+01  0.1187E+01
    -10.530 -0.4963E-02 -0.4971E-02  0.1187E+01  0.1187E+01
    -10.520 -0.6155E-02 -0.6165E-02  0.1187E+01  0.1187E+01
    -10.510 -0.7583E-02 -0.7595E-02  0.1187E+01  0.1187E+01
    -10.500 -0.9282E-02 -0.9295E-02  0.1187E+01  0.1187E+01
    -10.490 -0.1129E-01 -0.1130E-01  0.1187E+01  0.1187E+01
    -10.480 -0.1363E-01 -0.1365E-01  0.1187E+01  0.1187E+01
    -10.470 -0.1634E-01 -0.1636E-01  0.1187E+01  0.1187E+01
    -10.460 -0.1946E-01 -0.1948E-01  0.1186E+01  0.1186E+01
    -10.450 -0.2300E-01 -0.2303E-01  0.1186E+01  0.1186E+01
    -10.440 -0.2698E-01 -0.2701E-01  0.1186E+01  0.1186E+01
    -10.430 -0.3141E-01 -0.3144E-01  0.1186E+01  0.1186E+01
    -10.420 -0.3626E-01 -0.3630E-01  0.1185E+01  0.1185E+01
    -10.410 -0.4152E-01 -0.4156E-01  0.1185E+01  0.1185E+01
    -10.400 -0.4712E-01 -0.4716E-01  0.1184E+01  0.1184E+01
    -10.390 -0.5299E-01 -0.5303E-01  0.1184E+01  0.1184E+01
    -10.380 -0.5900E-01 -0.5904E-01  0.1183E+01  0.1183E+01
    -10.370 -0.6500E-01 -0.6504E-01  0.1183E+01  0.1183E+01
    -10.360 -0.7079E-01 -0.7083E-01  0.1182E+01  0.1182E+01
    -10.350 -0.7614E-01 -0.7618E-01  0.1181E+01  0.1181E+01
    -10.340 -0.8075E-01 -0.8078E-01  0.1180E+01  0.1180E+01
    -10.330 -0.8429E-01 -0.8431E-01  0.1179E+01  0.1179E+01
    -10.320 -0.8637E-01 -0.8638E-01  0.1179E+01  0.1179E+01
    -10.310 -0.8656E-01 -0.8656E-01  0.1178E+01  0.1178E+01
    -10.300 -0.8438E-01 -0.8436E-01  0.1177E+01  0.1177E+01
    -10.290 -0.7933E-01 -0.7928E-01  0.1176E+01  0.1176E+01
    -10.280 -0.7086E-01 -0.7078E-01  0.1175E+01  0.1175E+01
    -10.270 -0.5842E-01 -0.5831E-01  0.1175E+01  0.1175E+01
    -10.260 -0.4146E-01 -0.4131E-01  0.1174E+01  0.1174E+01
    -10.250 -0.1944E-01 -0.1926E-01  0.1174E+01  0.1174E+01
    -10.240  0.8136E-02  0.8358E-02  0.1174E+01  0.1174E+01
    -10.230  0.4171E-01  0.4198E-01  0.1175E+01  0.1175E+01
    -10.220  0.8167E-01  0.8198E-01  0.1176E+01  0.1176E+01
    -10.210  0.1283E+00  0.1286E+00  0.1177E+01  0.1177E+01
    -10.200  0.1817E+00  0.1821E+00  0.1179E+01  0.1179E+01
    -10.190  0.2419E+00  0.2423E+00  0.1181E+01  0.1181E+01
    -10.180  0.3087E+00  0.3092E+00  0.1184E+01  0.1184E+01
    -10.170  0.3819E+00  0.3825E+00  0.1188E+01  0.1188E+01
    -10.160  0.4610E+00  0.4616E+00  0.1193E+01  0.1193E+01
    -10.150  0.5453E+00  0.5459E+00  0.1198E+01  0.1198E+01
    -10.140  0.6339E+00  0.6345E+00  0.1204E+01  0.1204E+01
    -10.130  0.7257E+00  0.7264E+00  0.1212E+01  0.1212E+01
    -10.120  0.8197E+00  0.8204E+00  0.1220E+01  0.1220E+01
    -10.110  0.9144E+00  0.9151E+00  0.1229E+01  0.1229E+01
    -10.100  0.1008E+01  0.1009E+01  0.1239E+01  0.1239E+01
    -10.090  0.1100E+01  0.1101E+01  0.1250E+01  0.1250E+01
    -10.080  0.1188E+01  0.1189E+01  0.1262E+01  0.1262E+01
    -10.070  0.1271E+01  0.1271E+01  0.1275E+01  0.1275E+01
    -10.060  0.1347E+01  0.1347E+01  0.1288E+01  0.1288E+01
    -10.050  0.1414E+01  0.1414E+01  0.1302E+01  0.1302E+01