    2    2    1    2
  0.1673183E+02  0.2472373E-09  0.2472373E-09  0.6321422E-09  0.5000000E-15
  1.000000000000000E-004
  CAR 
 unknown system                          
      8      4     12
 
  0.1276756E-14  0.1276756E-14  0.1276756E-14  0.6250000E-01
      1        -18.951109      -18.951297   1.000000   1.000000
      2         -7.057418       -7.057863   1.000000   1.000000
      3         -2.518448       -2.518302   1.000000   1.000000
      4         -2.518425       -2.518275   1.000000   1.000000
      5          3.277193        3.249869   0.000000   0.000000
      6          8.372066        8.369798   0.000000   0.000000
      7          8.800168        8.800403   0.000000   0.000000
      8          8.800187        8.800417   0.000000   0.000000
      9         11.548808       11.508007   0.000000   0.000000
     10         11.878239       11.877650   0.000000   0.000000
     11         12.823374       12.822855   0.000000   0.000000
     12         22.922129       22.911735   0.000000   0.000000
 
  0.2500000E+00  0.1235123E-14  0.1276756E-14  0.3750000E+00
      1        -17.491956      -17.492128   1.000000   1.000000
      2         -6.901937       -6.901918   1.000000   1.000000
      3         -5.342611       -5.343070   1.000000   1.000000
      4         -4.517444       -4.517296   1.000000   1.000000
      5          5.264965        5.238391   0.000000   0.000000
      6          7.699869        7.699312   0.000000   0.000000
      7          8.482082        8.481711   0.000000   0.000000
      8         10.195695       10.193602   0.000000   0.000000
      9         13.410504       13.370062   0.000000   0.000000
     10         13.874151       13.874417   0.000000   0.000000
     11         15.530233       15.529629   0.000000   0.000000
     12         20.387774       20.386703   0.000000   0.000000
 
  0.5000000E+00  0.1165734E-14  0.1276756E-14  0.1875000E+00
      1        -13.743799      -13.743969   1.000000   1.000000
      2        -12.676142      -12.676183   1.000000   1.000000
      3         -5.876760       -5.876614   1.000000   1.000000
      4         -1.841950       -1.842468   0.998802   0.999380
      5          2.189983        2.189533  -0.000000  -0.000000
      6          7.802894        7.802653   0.000000   0.000000
      7         11.075239       11.053156   0.000000   0.000000
      8         11.241619       11.216402   0.000000   0.000000
      9         14.246314       14.245426   0.000000   0.000000
     10         15.950848       15.948774   0.000000   0.000000
     11         18.075663       18.043014   0.000000   0.000000
     12         18.394610       18.355528   0.000000   0.000000
 
  0.2500000E+00  0.2500000E+00  0.1276756E-14  0.3750000E+00
      1        -14.686987      -14.687129   1.000000   1.000000
      2        -10.002706      -10.002779   1.000000   1.000000
      3         -8.400747       -8.400662   1.000000   1.000000
      4         -2.214228       -2.214722   1.000457   1.000452
      5          3.303974        3.303438   0.000000   0.000000
      6          9.202145        9.177494   0.000000   0.000000
      7         11.990620       11.990023   0.000000   0.000000
      8         12.647567       12.646508   0.000000   0.000000
      9         13.014884       13.014237   0.000000   0.000000
     10         15.963426       15.961627   0.000000   0.000000
     11         16.747616       16.710873   0.000000   0.000000
     12         17.675200       17.650949   0.000000   0.000000
