 vasp.6.5.0 16Dec24 (build Mar 16 2025 21:55:21) complex                        
  
 executed on             LinuxIFC date 2026.01.27  11:15:14
 running    4 mpi-ranks, with   40 threads/rank, on    1 nodes
 distrk:  each k-point on    4 cores,    1 groups
 distr:  one band on NCORE=   1 cores,    4 groups


--------------------------------------------------------------------------------------------------------


 INCAR:
   ISMEAR = 1
   SIGMA = 0.2
   ISIF = 3
   PREC = Accurate
   ISPIN = 2
   MAGMOM = 2*1
   LORBIT = 12
   ICHARG = 11
   LCHARG = .FALSE.
   NEDOS = 3001
   EMAX = 15
   EMIN = -15
   NSW = 0
   IBRION = 2
   LWAVE = .FALSE.
   LREAL = .FALSE.
   EDIFF = 1E-5
   EDIFFG = -0.01
   ALGO = Fast

 POTCAR:    PAW_PBE C 08Apr2002                   
 POTCAR:    PAW_PBE C 08Apr2002                   
   SHA256 =  253f7b50bb8d59471dbedb8285d89021f4a42ed1a2c5d38a03a736e69125dd95 C/POTCAR              
   COPYR  = (c) Copyright 08Apr2002 Georg Kresse                                                    
   COPYR  = This file is part of the software VASP. Any use, copying, and all other rights are regul
   COPYR  = If you do not have a valid VASP license, you may not use, copy or distribute this file. 
   VRHFIN =C: s2p2                                                                                  
   LEXCH  = PE                                                                                      
   EATOM  =   147.1560 eV,   10.8157 Ry                                                             
                                                                                                    
   TITEL  = PAW_PBE C 08Apr2002                                                                     
   LULTRA =        F    use ultrasoft PP ?                                                          
   IUNSCR =        1    unscreen: 0-lin 1-nonlin 2-no                                               
   RPACOR =    1.200    partial core radius                                                         
   POMASS =   12.011; ZVAL   =    4.000    mass and valenz                                          
   RCORE  =    1.500    outmost cutoff radius                                                       
   RWIGS  =    1.630; RWIGS  =    0.863    wigner-seitz radius (au A)                               
   ENMAX  =  400.000; ENMIN  =  300.000 eV                                                          
   ICORE  =        2    local potential                                                             
   LCOR   =        T    correct aug charges                                                         
   LPAW   =        T    paw PP                                                                      
   EAUG   =  644.873                                                                                
   DEXC   =    0.000                                                                                
   RMAX   =    1.529    core radius for proj-oper                                                   
   RAUG   =    1.300    factor for augmentation sphere                                              
   RDEP   =    1.501    radius for radial grids                                                     
   RDEPT  =    1.300    core radius for aug-charge                                                  
                                                                                                    
   Atomic configuration                                                                             
    4 entries                                                                                       
     n  l   j            E        occ.                                                              
     1  0  0.50      -273.3789   2.0000                                                             
     2  0  0.50       -13.7508   2.0000                                                             
     2  1  0.50        -5.2854   2.0000                                                             
     3  2  1.50        -5.4423   0.0000                                                             
   Description                                                                                      
     l       E           TYP  RCUT    TYP  RCUT                                                     
     0    -13.7508458     23  1.200                                                                 
     0     -8.2022199     23  1.200                                                                 
     1     -5.2854383     23  1.500                                                                 
     1     34.0145650     23  1.500                                                                 
     2     -5.4423304      7  1.500                                                                 
  local pseudopotential read in
  partial core-charges read in
  partial kinetic energy density read in
  atomic valenz-charges read in
  non local Contribution for L=           0  read in
    real space projection operators read in
  non local Contribution for L=           0  read in
    real space projection operators read in
  non local Contribution for L=           1  read in
    real space projection operators read in
  non local Contribution for L=           1  read in
    real space projection operators read in
    PAW grid and wavefunctions read in
 
   number of l-projection  operators is LMAX  =           4
   number of lm-projection operators is LMMAX =           8
 
  PAW_PBE C 08Apr2002                   :
 energy of atom  1       EATOM= -147.1560
 kinetic energy error for atom=    0.0288 (will be added to EATOM!!)
 
 
 POSCAR: C
  positions in direct lattice
  velocities in cartesian coordinates


 exchange-correlation table for PE
   RHO(1)=    0.500       N(1)  =     2000
   RHO(2)=  100.500       N(2)  =     4000
 


--------------------------------------------------------------------------------------------------------


 ion  position               nearest neighbor table
   1  0.333  0.167  0.500-   2 1.43   2 1.43   2 1.43
   2  0.667  0.833  0.500-   1 1.43   1 1.43   1 1.43
 
  LATTYP: Found a hexagonal cell.
 ALAT       =     2.4723732293
 C/A-ratio  =     2.5568234886
  
  Lattice vectors:
  
 A1 = (   1.2361866146,  -2.1411380242,   0.0000000000)
 A2 = (   1.2361866146,   2.1411380242,   0.0000000000)
 A3 = (   0.0000000000,   0.0000000000,   6.3214219452)


Analysis of symmetry for initial positions (statically):
=====================================================================
 Subroutine PRICEL returns:
 Original cell was already a primitive cell.
 

 Routine SETGRP: Setting up the symmetry group for a 
 hexagonal supercell.


 Subroutine GETGRP returns: Found 24 space group operations
 (whereof  8 operations were pure point group operations)
 out of a pool of 24 trial point group operations.


The static configuration has the point symmetry D_2h.
 The point group associated with its full space group is D_6h.


Analysis of symmetry for dynamics (positions and initial velocities):
=====================================================================
 Subroutine PRICEL returns:
 Original cell was already a primitive cell.
 

 Routine SETGRP: Setting up the symmetry group for a 
 hexagonal supercell.


 Subroutine GETGRP returns: Found 24 space group operations
 (whereof  8 operations were pure point group operations)
 out of a pool of 24 trial point group operations.


The dynamic configuration has the point symmetry D_2h.
 The point group associated with its full space group is D_6h.


Analysis of constrained symmetry for selective dynamics:
=====================================================================
 Subroutine PRICEL returns:
 Original cell was already a primitive cell.
 

 Routine SETGRP: Setting up the symmetry group for a 
 hexagonal supercell.


 Subroutine GETGRP returns: Found 24 space group operations
 (whereof  8 operations were pure point group operations)
 out of a pool of 24 trial point group operations.


The constrained configuration has the point symmetry D_2h.
 The point group associated with its full space group is D_6h.


Analysis of structural, dynamic, and magnetic symmetry:
=====================================================================
 Subroutine PRICEL returns:
 Original cell was already a primitive cell.
 

 Routine SETGRP: Setting up the symmetry group for a 
 hexagonal supercell.


 Subroutine GETGRP returns: Found 24 space group operations
 (whereof  8 operations were pure point group operations)
 out of a pool of 24 trial point group operations.


The overall configuration has the point symmetry D_2h.
 The point group associated with its full space group is D_6h.


 Subroutine INISYM returns: Found 24 space group operations
 (whereof  8 operations are pure point group operations),
 and found     1 'primitive' translations


----------------------------------------------------------------------------------------

                                     Primitive cell                                     

  volume of cell :      33.4637

  direct lattice vectors                    reciprocal lattice vectors
     1.236186615 -2.141138024  0.000000000     0.404469676 -0.233520677  0.000000000
     1.236186615  2.141138024  0.000000000     0.404469676  0.233520677  0.000000000
     0.000000000  0.000000000  6.321421945     0.000000000  0.000000000  0.158192256

  length of vectors
     2.472373229  2.472373229  6.321421945     0.467041353  0.467041353  0.158192256

  position of ions in fractional coordinates (direct lattice)
     0.333333333  0.166666667  0.500000000
     0.666666667  0.833333333  0.500000000

  ion indices of the primitive-cell ions
   primitive index   ion index
                 1           1
                 2           2

----------------------------------------------------------------------------------------

 
 
 KPOINTS: pure                                    

Automatic generation of k-mesh.
 Grid dimensions read from file:
 generate k-points for:    4    4    1

 Generating k-lattice:

  Cartesian coordinates                     Fractional coordinates (reciprocal lattice)
     0.101117419 -0.058380169  0.000000000     0.250000000  0.000000000  0.000000000
     0.101117419  0.058380169  0.000000000     0.000000000  0.250000000  0.000000000
     0.000000000  0.000000000  0.158192256     0.000000000  0.000000000  1.000000000

  Length of vectors
     0.116760338  0.116760338  0.158192256

  Shift w.r.t. Gamma in fractional coordinates (k-lattice)
     0.000000000  0.000000000  0.000000000

 
 Subroutine IBZKPT returns following result:
 ===========================================
 
 Found      4 irreducible k-points:
 
 Following reciprocal coordinates:
            Coordinates               Weight
  0.000000  0.000000  0.000000      1.000000
  0.250000  0.000000  0.000000      6.000000
  0.500000  0.000000  0.000000      3.000000
  0.250000  0.250000  0.000000      6.000000
 
 Following cartesian coordinates:
            Coordinates               Weight
  0.000000  0.000000  0.000000      1.000000
  0.101117 -0.058380  0.000000      6.000000
  0.202235 -0.116760  0.000000      3.000000
  0.202235  0.000000  0.000000      6.000000
 


--------------------------------------------------------------------------------------------------------




 Dimension of arrays:
   k-points           NKPTS =      4   k-points in BZ     NKDIM =      4   number of bands    NBANDS=     12
   number of dos      NEDOS =   3001   number of ions     NIONS =      2
   non local maximal  LDIM  =      4   non local SUM 2l+1 LMDIM =      8
   total plane-waves  NPLWV =  10752
   max r-space proj   IRMAX =      1   max aug-charges    IRDMAX=   3991
   dimension x,y,z NGX =    16 NGY =   16 NGZ =   42
   dimension x,y,z NGXF=    32 NGYF=   32 NGZF=   84
   support grid    NGXF=    32 NGYF=   32 NGZF=   84
   ions per type =               2
   NGX,Y,Z   is equivalent  to a cutoff of  10.76, 10.76, 11.05 a.u.
   NGXF,Y,Z  is equivalent  to a cutoff of  21.52, 21.52, 22.09 a.u.

 SYSTEM =  unknown system                          
 POSCAR =  C                                       

 Startparameter for this run:
   NWRITE =      2    write-flag & timer
   PREC   = accura    normal or accurate (medium, high low for compatibility)
   ISTART =      0    job   : 0-new  1-cont  2-samecut
   ICHARG =     11    charge: 1-file 2-atom 10-const
   ISPIN  =      2    spin polarized calculation?
   LNONCOLLINEAR =      F non collinear calculations
   LSORBIT =      F    spin-orbit coupling
   INIWAV =      1    electr: 0-lowe 1-rand  2-diag
   LASPH  =      F    aspherical Exc in radial PAW
 Electronic Relaxation 1
   ENCUT  =  400.0 eV  29.40 Ry    5.42 a.u.   4.03  4.03 10.31*2*pi/ulx,y,z
   ENINI  =  400.0     initial cutoff
   ENAUG  =  644.9 eV  augmentation charge cutoff
   NELM   =     60;   NELMIN=  2; NELMDL= -5     # of ELM steps 
   EDIFF  = 0.1E-04   stopping-criterion for ELM
   LREAL  =      F    real-space projection
   NLSPLINE    = F    spline interpolate recip. space projectors
   LCOMPAT=      F    compatible to vasp.4.4
   GGA_COMPAT  = T    GGA compatible to vasp.4.4-vasp.4.6
   LMAXPAW     = -100 max onsite density
   LMAXMIX     =    2 max onsite mixed and CHGCAR
   VOSKOWN=      0    Vosko Wilk Nusair interpolation
   ROPT   =    0.00000
 Ionic relaxation
   EDIFFG = -.1E-01   stopping-criterion for IOM
   NSW    =      0    number of steps for IOM
   NBLOCK =      1;   KBLOCK =      1    inner block; outer block 
   IBRION =     -1    ionic relax: 0-MD 1-quasi-New 2-CG
   NFREE  =      1    steps in history (QN), initial steepest desc. (CG)
   ISIF   =      3    stress and relaxation
   IWAVPR =     10    prediction:  0-non 1-charg 2-wave 3-comb
   ISYM   =      2    0-nonsym 1-usesym 2-fastsym
   LCORR  =      T    Harris-Foulkes like correction to forces

   POTIM  = 0.5000    time-step for ionic-motion
   TEIN   =    0.0    initial temperature
   TEBEG  =    0.0;   TEEND  =   0.0 temperature during run
   SMASS  =  -3.00    Nose mass-parameter (am)
   estimated Nose-frequenzy (Omega)   =  0.10E-29 period in steps = 0.13E+47 mass=  -0.140E-27a.u.
   SCALEE = 1.0000    scale energy and forces
   NPACO  =    256;   APACO  = 10.0  distance and # of slots for P.C.
   PSTRESS=    0.0 pullay stress

  Mass of Ions in am
   POMASS =  12.01
  Ionic Valenz
   ZVAL   =   4.00
  Atomic Wigner-Seitz radii
   RWIGS  =  -1.00
  virtual crystal weights 
   VCA    =   1.00
   NELECT =       8.0000    total number of electrons
   NUPDOWN=      -1.0000    fix difference up-down

 DOS related values:
   EMIN   = -15.00;   EMAX   = 15.00  energy-range for DOS
   EFERMI =   0.00;   METHOD = LEGACY      
   ISMEAR =     1;   SIGMA  =   0.20  broadening in eV -4-tet -1-fermi 0-gaus
   EFERMI_NEDOS =   21; number of points for ismear=-14 and -15

 Electronic relaxation 2 (details)
   IALGO  =     68    algorithm
   LDIAG  =      T    sub-space diagonalisation (order eigenvalues)
   LSUBROT=      F    optimize rotation matrix (better conditioning)
   TURBO    =      0    0=normal 1=particle mesh
   IRESTART =      0    0=no restart 2=restart with 2 vectors
   NREBOOT  =      0    no. of reboots
   NMIN     =      0    reboot dimension
   EREF     =   0.00    reference energy to select bands
   IMIX   =      4    mixing-type and parameters
     AMIX     =   0.40;   BMIX     =  1.00
     AMIX_MAG =   1.60;   BMIX_MAG =  1.00
     AMIN     =   0.10
     WC   =   100.;   INIMIX=   1;  MIXPRE=   1;  MAXMIX= -45

 Intra band minimization:
   WEIMIN = 0.0000     energy-eigenvalue tresh-hold
   EBREAK =  0.21E-06  absolut break condition
   DEPER  =   0.30     relativ break condition  

   TIME   =   0.40     timestep for ELM

  volume/ion in A,a.u.               =      16.73       112.91
  Fermi-wavevector in a.u.,A,eV,Ry     =   1.016047  1.920050 14.045987  1.032351
  Thomas-Fermi vector in A             =   2.149368
 
 Write flags
   LWAVE        =      F    write WAVECAR
   LDOWNSAMPLE  =      F    k-point downsampling of WAVECAR
   LCHARG       =      F    write CHGCAR
   LVTOT        =      F    write LOCPOT, total local potential
   LVHAR        =      F    write LOCPOT, Hartree potential only
   WRT_POTENTIAL= false  ! write potential to hdf5 file
   LELF         =      F    write electronic localiz. function (ELF)
   LORBIT       =     12    0 simple, 1 ext, 2 COOP (PROOUT), +10 PAW based schemes


 Python interface
   PLUGINS active      =      F    recompile with -DPLUGINS to activate
 
 Dipole corrections
   LMONO      =      F    monopole corrections only (constant potential shift)
   LDIPOL     =      F    correct potential (dipole corrections)
   IDIPOL     =      0    1-x, 2-y, 3-z, 4-all directions 
   EPSILON    =  1.0000000 bulk dielectric constant
   LVACPOTAV  =      F  vacuum potentials using an averaging scheme for the charge density
   VACPOTFLAT =  0.1000000 required flatness to determine vacuum potential
 
Coulomb truncation method
  LTRUNCATE          =      F  Coulomb kernel truncation to be used
  IDIMENSIONALITY    =      3  Dimensionality of cutoff (0 molecules / 2 surfaces)
  ISURFACE           =     -1  Direction of surface normal
  LCOARSEN           =      F  Coarsen the charge grid before padding, preferred

 
 Exchange correlation treatment:
   GGA     = PE    functional components
   XC_C    = 1    coefficients multiplying the functional components
   LIBXC   =     F    Libxc                    
   VOSKOWN =     0    Vosko Wilk Nusair interpolation
   LHFCALC =     F    Hartree Fock is set to
   LHFONE  =     F    Hartree Fock one center treatment
   AEXX    =    0.0000 exact exchange contribution

 Parameters of functionals:
   PE:
     No parameter
 
 Van der Waals corrections
   IVDW    =     0    specifies the selected vdW correction

 Linear response parameters
   LEPSILON=     F    determine dielectric tensor
   LRPA    =     F    only Hartree local field effects (RPA)
   LNABLA  =     F    use nabla operator in PAW spheres
   LVEL    =     F    velocity operator in full k-point grid
   CSHIFT  =0.1000    complex shift for real part using Kramers Kronig
   OMEGAMAX=  -1.0    maximum frequency
   DEG_THRESHOLD= 0.2000000E-02 threshold for treating states as degnerate
   RTIME   =   -0.100 relaxation time in fs
  (WPLASMAI=    0.000 imaginary part of plasma frequency in eV, 0.658/RTIME)
   DFIELD  = 0.0000000 0.0000000 0.0000000 field for delta impulse in time
 
  Optional k-point grid parameters
   LKPOINTS_OPT  =     F    use optional k-point grid
   KPOINTS_OPT_MODE=     1    mode for optional k-point grid
 
 Orbital magnetization related:
   ORBITALMAG=     F  switch on orbital magnetization
   LCHIMAG   =     F  perturbation theory with respect to B field
   DQ        =  0.001000  dq finite difference perturbation B field
   LLRAUG    =     F  two centre corrections for induced B field
   LBONE     =     F  B-component reconstruction in AE one-centre
   LVGVCALC  =     T  calculate vGv susceptibility
   LVGVAPPL  =     F  apply vGv susceptibility instead of pGv for G=0

 Random number generation:
   RANDOM_GENERATOR = DEFAULT
   PCG_SEED         = not used


--------------------------------------------------------------------------------------------------------


 Static calculation
 charge density and potential remain constant during run
 spin polarized calculation
 RMM-DIIS sequential band-by-band and
  variant of blocked Davidson during initial phase
 perform sub-space diagonalisation
    before iterative eigenvector-optimisation
 no mixing
 using additional bands            8
 reciprocal scheme for non local part
 use partial core corrections
 calculate Harris-corrections to forces 
   (improved forces if not selfconsistent)
 use gradient corrections 
 WARNING: stress and forces are not correct
  (second derivative of E(xc) not defined)
 use of overlap-Matrix (Vanderbilt PP)
 Methfessel and Paxton  Order N= 1 SIGMA  =   0.20


--------------------------------------------------------------------------------------------------------


  energy-cutoff  :      400.00
  volume of cell :       33.46
      direct lattice vectors                 reciprocal lattice vectors
     1.236186615 -2.141138024  0.000000000     0.404469676 -0.233520677  0.000000000
     1.236186615  2.141138024  0.000000000     0.404469676  0.233520677  0.000000000
     0.000000000  0.000000000  6.321421945     0.000000000  0.000000000  0.158192256

  length of vectors
     2.472373229  2.472373229  6.321421945     0.467041353  0.467041353  0.158192256


 
 k-points in units of 2pi/SCALE and weight: pure                                    
   0.00000000  0.00000000  0.00000000       0.062
   0.10111742 -0.05838017  0.00000000       0.375
   0.20223484 -0.11676034  0.00000000       0.188
   0.20223484  0.00000000  0.00000000       0.375
 
 k-points in reciprocal lattice and weights: pure                                    
   0.00000000  0.00000000  0.00000000       0.062
   0.25000000  0.00000000  0.00000000       0.375
   0.50000000  0.00000000  0.00000000       0.188
   0.25000000  0.25000000  0.00000000       0.375
 
 position of ions in fractional coordinates (direct lattice) 
   0.33333333  0.16666667  0.50000000
   0.66666667  0.83333333  0.50000000
 
 position of ions in cartesian coordinates  (Angst):
   0.61809331 -0.35685634  3.16071097
   1.85427992  0.35685634  3.16071097
 


--------------------------------------------------------------------------------------------------------


 k-point     1 :   0.0000 0.0000 0.0000  plane waves:     579
 k-point     2 :   0.2500 0.0000 0.0000  plane waves:     595
 k-point     3 :   0.5000 0.0000 0.0000  plane waves:     606
 k-point     4 :   0.2500 0.2500 0.0000  plane waves:     620

 maximum and minimum number of plane-waves per node :       620      579

 maximum number of plane-waves:       620
 maximum index in each direction: 
   IXMAX=    4   IYMAX=    4   IZMAX=   10
   IXMIN=   -4   IYMIN=   -4   IZMIN=  -10


 serial   3D FFT for wavefunctions
 parallel 3D FFT for charge:
    minimum data exchange during FFTs selected (reduces bandwidth)


 total amount of memory used by VASP MPI-rank0    33661. kBytes
=======================================================================

   base                                    :      30000. kBytes
   nonl-proj                               :        178. kBytes
   fftplans                                :        782. kBytes
   grid                                    :       2445. kBytes
   one-center                              :         12. kBytes
   wavefun                                 :        244. kBytes
 
     INWAV:  cpu time      0.0011: real time      0.0001
 initial charge density was supplied:
 number of electron       8.0000001 magnetization      -0.0003061
 keeping initial charge density in first step


--------------------------------------------------------------------------------------------------------


 Maximum index for augmentation-charges          893 (set IRDMAX)


--------------------------------------------------------------------------------------------------------


 First call to EWALD:  gamma=   0.550
 Maximum number of real-space cells   4x   4x   2
 Maximum number of reciprocal cells   2x   2x   5

    FEWALD:  cpu time      0.5561: real time      0.0278


--------------------------------------- Ionic step        1  -------------------------------------------




--------------------------------------- Iteration      1(   1)  ---------------------------------------


    POTLOK:  cpu time     19.0096: real time      0.9472
    SETDIJ:  cpu time      1.1844: real time      0.0588
     EDDAV:  cpu time     36.5011: real time      1.8120
       DOS:  cpu time      0.0279: real time      0.0014
    --------------------------------------------
      LOOP:  cpu time     56.7241: real time      2.8194

 eigenvalue-minimisations  :   200
 total energy-change (2. order) : 0.1160859E+02  (-0.3046514E+03)
 number of electron       8.0000001 magnetization      -0.0003061
 augmentation part        8.0000001 magnetization      -0.0003061

 Free energy of the ion-electron system (eV)
  ---------------------------------------------------
  alpha Z        PSCENC =         9.81921391
  Ewald energy   TEWEN  =        39.86390415
  -Hartree energ DENC   =      -319.72865298
  -exchange      EXHF   =         0.00000000
  -V(xc)+E(xc)   XCENC  =        27.51011951
  PAW double counting   =       849.54482455     -850.89422985
  entropy T*S    EENTRO =        -0.02035914
  eigenvalues    EBANDS =       -38.74068118
  atomic energy  EATOM  =       294.25444774
  Solvation  Ediel_sol  =         0.00000000
  ---------------------------------------------------
  free energy    TOTEN  =        11.60858671 eV

  energy without entropy =       11.62894585  energy(sigma->0) =       11.61537309


--------------------------------------------------------------------------------------------------------




--------------------------------------- Iteration      1(   2)  ---------------------------------------


     EDDAV:  cpu time    117.0058: real time      5.8309
       DOS:  cpu time      0.0317: real time      0.0016
    --------------------------------------------
      LOOP:  cpu time    117.0374: real time      5.8325

 eigenvalue-minimisations  :   276
 total energy-change (2. order) :-0.2900184E+02  (-0.2696617E+02)
 number of electron       8.0000001 magnetization      -0.0003061
 augmentation part        8.0000001 magnetization      -0.0003061

 Free energy of the ion-electron system (eV)
  ---------------------------------------------------
  alpha Z        PSCENC =         9.81921391
  Ewald energy   TEWEN  =        39.86390415
  -Hartree energ DENC   =      -319.72865298
  -exchange      EXHF   =         0.00000000
  -V(xc)+E(xc)   XCENC  =        27.51011951
  PAW double counting   =       849.54482455     -850.89422985
  entropy T*S    EENTRO =         0.00150600
  eigenvalues    EBANDS =       -67.76439018
  atomic energy  EATOM  =       294.25444774
  Solvation  Ediel_sol  =         0.00000000
  ---------------------------------------------------
  free energy    TOTEN  =       -17.39325714 eV

  energy without entropy =      -17.39476315  energy(sigma->0) =      -17.39375914


--------------------------------------------------------------------------------------------------------




--------------------------------------- Iteration      1(   3)  ---------------------------------------


     EDDAV:  cpu time     89.4553: real time      4.4632
       DOS:  cpu time      0.1339: real time      0.0067
    --------------------------------------------
      LOOP:  cpu time     89.5898: real time      4.4699

 eigenvalue-minimisations  :   240
 total energy-change (2. order) :-0.1082229E+01  (-0.1081841E+01)
 number of electron       8.0000001 magnetization      -0.0003061
 augmentation part        8.0000001 magnetization      -0.0003061

 Free energy of the ion-electron system (eV)
  ---------------------------------------------------
  alpha Z        PSCENC =         9.81921391
  Ewald energy   TEWEN  =        39.86390415
  -Hartree energ DENC   =      -319.72865298
  -exchange      EXHF   =         0.00000000
  -V(xc)+E(xc)   XCENC  =        27.51011951
  PAW double counting   =       849.54482455     -850.89422985
  entropy T*S    EENTRO =         0.00230817
  eigenvalues    EBANDS =       -68.84742182
  atomic energy  EATOM  =       294.25444774
  Solvation  Ediel_sol  =         0.00000000
  ---------------------------------------------------
  free energy    TOTEN  =       -18.47548661 eV

  energy without entropy =      -18.47779478  energy(sigma->0) =      -18.47625600


--------------------------------------------------------------------------------------------------------




--------------------------------------- Iteration      1(   4)  ---------------------------------------


     EDDAV:  cpu time     97.8137: real time      4.8434
       DOS:  cpu time      0.0360: real time      0.0018
    --------------------------------------------
      LOOP:  cpu time     97.8494: real time      4.8452

 eigenvalue-minimisations  :   228
 total energy-change (2. order) :-0.4831295E-02  (-0.4830758E-02)
 number of electron       8.0000001 magnetization      -0.0003061
 augmentation part        8.0000001 magnetization      -0.0003061

 Free energy of the ion-electron system (eV)
  ---------------------------------------------------
  alpha Z        PSCENC =         9.81921391
  Ewald energy   TEWEN  =        39.86390415
  -Hartree energ DENC   =      -319.72865298
  -exchange      EXHF   =         0.00000000
  -V(xc)+E(xc)   XCENC  =        27.51011951
  PAW double counting   =       849.54482455     -850.89422985
  entropy T*S    EENTRO =         0.00231376
  eigenvalues    EBANDS =       -68.85225870
  atomic energy  EATOM  =       294.25444774
  Solvation  Ediel_sol  =         0.00000000
  ---------------------------------------------------
  free energy    TOTEN  =       -18.48031791 eV

  energy without entropy =      -18.48263167  energy(sigma->0) =      -18.48108916


--------------------------------------------------------------------------------------------------------




--------------------------------------- Iteration      1(   5)  ---------------------------------------


     EDDAV:  cpu time     36.8516: real time      1.8423
       DOS:  cpu time      0.0274: real time      0.0013
    --------------------------------------------
      LOOP:  cpu time     36.8788: real time      1.8437

 eigenvalue-minimisations  :   248
 total energy-change (2. order) :-0.3747482E-04  (-0.3747454E-04)
 number of electron       8.0000001 magnetization      -0.0003061
 augmentation part        8.0000001 magnetization      -0.0003061

 Free energy of the ion-electron system (eV)
  ---------------------------------------------------
  alpha Z        PSCENC =         9.81921391
  Ewald energy   TEWEN  =        39.86390415
  -Hartree energ DENC   =      -319.72865298
  -exchange      EXHF   =         0.00000000
  -V(xc)+E(xc)   XCENC  =        27.51011951
  PAW double counting   =       849.54482455     -850.89422985
  entropy T*S    EENTRO =         0.00231382
  eigenvalues    EBANDS =       -68.85229624
  atomic energy  EATOM  =       294.25444774
  Solvation  Ediel_sol  =         0.00000000
  ---------------------------------------------------
  free energy    TOTEN  =       -18.48035538 eV

  energy without entropy =      -18.48266921  energy(sigma->0) =      -18.48112666


--------------------------------------------------------------------------------------------------------




--------------------------------------- Iteration      1(   6)  ---------------------------------------


    EDDIAG:  cpu time     11.2508: real time      0.5605
  RMM-DIIS:  cpu time      9.9822: real time      0.4993
    ORTHCH:  cpu time      2.3723: real time      0.1187
       DOS:  cpu time      0.0390: real time      0.0019
    --------------------------------------------
      LOOP:  cpu time     23.6451: real time      1.1804

 eigenvalue-minimisations  :   120
 total energy-change (2. order) :-0.3921423E-06  (-0.3922447E-06)
 number of electron       8.0000001 magnetization      -0.0003061
 augmentation part        8.0000001 magnetization      -0.0003061

 Free energy of the ion-electron system (eV)
  ---------------------------------------------------
  alpha Z        PSCENC =         9.81921391
  Ewald energy   TEWEN  =        39.86390415
  -Hartree energ DENC   =      -319.72865298
  -exchange      EXHF   =         0.00000000
  -V(xc)+E(xc)   XCENC  =        27.51011951
  PAW double counting   =       849.54482455     -850.89422985
  entropy T*S    EENTRO =         0.00231382
  eigenvalues    EBANDS =       -68.85229663
  atomic energy  EATOM  =       294.25444774
  Solvation  Ediel_sol  =         0.00000000
  ---------------------------------------------------
  free energy    TOTEN  =       -18.48035578 eV

  energy without entropy =      -18.48266960  energy(sigma->0) =      -18.48112705


--------------------------------------------------------------------------------------------------------




 average (electrostatic) potential at core
  the test charge radii are     0.6991
  (the norm of the test charge is              1.0000)
       1 -54.9532       2 -54.9532
 
 
 
 E-fermi :  -1.6747     XC(G=0):  -6.4388     alpha+bet : -5.9900

 val. band max:       -1.8419498016   @ k =   0.5000   0.0000   0.0000
 cond. band min:       2.1895328081   @ k =   0.5000   0.0000   0.0000
 fundamental gap:      4.0314826097
 Fermi energy:        -1.6746529134

 spin component 1

 k-point     1 :       0.0000    0.0000    0.0000
  band No.  band energies     occupation 
      1     -18.9511      1.00000
      2      -7.0574      1.00000
      3      -2.5184      1.00000
      4      -2.5184      1.00000
      5       3.2772      0.00000
      6       8.3721      0.00000
      7       8.8002      0.00000
      8       8.8002      0.00000
      9      11.5488      0.00000
     10      11.8782      0.00000
     11      12.8234      0.00000
     12      22.9221      0.00000

 k-point     2 :       0.2500    0.0000    0.0000
  band No.  band energies     occupation 
      1     -17.4920      1.00000
      2      -6.9019      1.00000
      3      -5.3426      1.00000
      4      -4.5174      1.00000
      5       5.2650      0.00000
      6       7.6999      0.00000
      7       8.4821      0.00000
      8      10.1957      0.00000
      9      13.4105      0.00000
     10      13.8742      0.00000
     11      15.5302      0.00000
     12      20.3878      0.00000

 k-point     3 :       0.5000    0.0000    0.0000
  band No.  band energies     occupation 
      1     -13.7438      1.00000
      2     -12.6761      1.00000
      3      -5.8768      1.00000
      4      -1.8419      0.99880
      5       2.1900     -0.00000
      6       7.8029      0.00000
      7      11.0752      0.00000
      8      11.2416      0.00000
      9      14.2463      0.00000
     10      15.9508      0.00000
     11      18.0757      0.00000
     12      18.3946      0.00000

 k-point     4 :       0.2500    0.2500    0.0000
  band No.  band energies     occupation 
      1     -14.6870      1.00000
      2     -10.0027      1.00000
      3      -8.4007      1.00000
      4      -2.2142      1.00046
      5       3.3040      0.00000
      6       9.2021      0.00000
      7      11.9906      0.00000
      8      12.6476      0.00000
      9      13.0149      0.00000
     10      15.9634      0.00000
     11      16.7476      0.00000
     12      17.6752      0.00000
 Fermi energy:        -1.6746529134

 spin component 2

 k-point     1 :       0.0000    0.0000    0.0000
  band No.  band energies     occupation 
      1     -18.9513      1.00000
      2      -7.0579      1.00000
      3      -2.5183      1.00000
      4      -2.5183      1.00000
      5       3.2499      0.00000
      6       8.3698      0.00000
      7       8.8004      0.00000
      8       8.8004      0.00000
      9      11.5080      0.00000
     10      11.8776      0.00000
     11      12.8229      0.00000
     12      22.9117      0.00000

 k-point     2 :       0.2500    0.0000    0.0000
  band No.  band energies     occupation 
      1     -17.4921      1.00000
      2      -6.9019      1.00000
      3      -5.3431      1.00000
      4      -4.5173      1.00000
      5       5.2384      0.00000
      6       7.6993      0.00000
      7       8.4817      0.00000
      8      10.1936      0.00000
      9      13.3701      0.00000
     10      13.8744      0.00000
     11      15.5296      0.00000
     12      20.3867      0.00000

 k-point     3 :       0.5000    0.0000    0.0000
  band No.  band energies     occupation 
      1     -13.7440      1.00000
      2     -12.6762      1.00000
      3      -5.8766      1.00000
      4      -1.8425      0.99938
      5       2.1895     -0.00000
      6       7.8027      0.00000
      7      11.0532      0.00000
      8      11.2164      0.00000
      9      14.2454      0.00000
     10      15.9488      0.00000
     11      18.0430      0.00000
     12      18.3555      0.00000

 k-point     4 :       0.2500    0.2500    0.0000
  band No.  band energies     occupation 
      1     -14.6871      1.00000
      2     -10.0028      1.00000
      3      -8.4007      1.00000
      4      -2.2147      1.00045
      5       3.3034      0.00000
      6       9.1775      0.00000
      7      11.9900      0.00000
      8      12.6465      0.00000
      9      13.0142      0.00000
     10      15.9616      0.00000
     11      16.7109      0.00000
     12      17.6509      0.00000


--------------------------------------------------------------------------------------------------------


 soft charge-density along one line, spin component           1
         0         1         2         3         4         5         6         7         8         9
 total charge-density along one line
 
 soft charge-density along one line, spin component           2
         0         1         2         3         4         5         6         7         8         9
 total charge-density along one line
 
 pseudopotential strength for first ion, spin component:           1
 10.019  13.319   0.000   0.000   0.000  -0.000  -0.000  -0.000
 13.319  17.705   0.000   0.000   0.000  -0.000  -0.000  -0.000
  0.000   0.000  -4.175  -0.000   0.000   8.169   0.000  -0.000
  0.000   0.000  -0.000  -4.169  -0.000   0.000   8.161   0.000
  0.000   0.000   0.000  -0.000  -4.175  -0.000   0.000   8.169
 -0.000  -0.000   8.169   0.000  -0.000 -18.108  -0.000   0.000
 -0.000  -0.000   0.000   8.161   0.000  -0.000 -18.101  -0.000
 -0.000  -0.000  -0.000   0.000   8.169   0.000  -0.000 -18.108
 pseudopotential strength for first ion, spin component:           2
 10.019  13.319   0.000   0.000   0.000  -0.000  -0.000  -0.000
 13.319  17.705   0.000   0.000   0.000  -0.000  -0.000  -0.000
  0.000   0.000  -4.175  -0.000  -0.000   8.169   0.000   0.000
  0.000   0.000  -0.000  -4.168  -0.000   0.000   8.160   0.000
  0.000   0.000  -0.000  -0.000  -4.175   0.000   0.000   8.169
 -0.000  -0.000   8.169   0.000   0.000 -18.108  -0.000  -0.000
 -0.000  -0.000   0.000   8.160   0.000  -0.000 -18.100  -0.000
 -0.000  -0.000   0.000   0.000   8.169  -0.000  -0.000 -18.108
 total augmentation occupancy for first ion, spin component:           1
  2.000   0.000   0.000   0.000   0.000   0.000   0.000   0.000
  0.000   0.000   0.000   0.000   0.000   0.000   0.000   0.000
  0.000   0.000   0.667   0.000   0.000   0.000   0.000   0.000
  0.000   0.000   0.000   0.667   0.000   0.000   0.000   0.000
  0.000   0.000   0.000   0.000   0.667   0.000   0.000   0.000
  0.000   0.000   0.000   0.000   0.000   0.000   0.000   0.000
  0.000   0.000   0.000   0.000   0.000   0.000   0.000   0.000
  0.000   0.000   0.000   0.000   0.000   0.000   0.000   0.000
 total augmentation occupancy for first ion, spin component:           2
  0.500   0.000   0.000   0.000   0.000   0.000   0.000   0.000
  0.000   0.000   0.000   0.000   0.000   0.000   0.000   0.000
  0.000   0.000   0.167   0.000   0.000   0.000   0.000   0.000
  0.000   0.000   0.000   0.167   0.000   0.000   0.000   0.000
  0.000   0.000   0.000   0.000   0.167   0.000   0.000   0.000
  0.000   0.000   0.000   0.000   0.000   0.000   0.000   0.000
  0.000   0.000   0.000   0.000   0.000   0.000   0.000   0.000
  0.000   0.000   0.000   0.000   0.000   0.000   0.000   0.000


------------------------ aborting loop because EDIFF is reached ----------------------------------------





 total charge

# of ion       s       p       d       tot
------------------------------------------
    1        0.861   1.788   0.000   2.649
    2        0.861   1.788   0.000   2.649
--------------------------------------------------
tot          1.723   3.575   0.000   5.298



 magnetization (x)

# of ion       s       p       d       tot
------------------------------------------
    1       -0.000  -0.000   0.000  -0.000
    2       -0.000  -0.000   0.000  -0.000
--------------------------------------------------
tot         -0.000  -0.000   0.000  -0.000
 
    CHARGE:  cpu time      2.5591: real time      0.1280
    FORLOC:  cpu time      0.2900: real time      0.0145
    FORNL :  cpu time      7.2300: real time      0.3616
    STRESS:  cpu time      9.3761: real time      0.4690
    FORCOR:  cpu time      7.9747: real time      0.3974
    FORHAR:  cpu time      1.9655: real time      0.0983
    OFIELD:  cpu time      0.0025: real time      0.0001

  FORCE on cell =-STRESS in cart. coord.  units (eV):
  Direction    XX          YY          ZZ          XY          YZ          ZX
  --------------------------------------------------------------------------------------
  Alpha Z     9.81921     9.81921     9.81921
  Ewald     308.04345   308.04345  -576.22325    -0.00000     0.00000     0.00000
  Hartree   308.32556   308.32556  -296.91979     0.00000    -0.00000    -0.00000
  E(xc)     -29.67890   -29.67890   -30.78658    -0.00000    -0.00000     0.00000
  Local    -708.93300  -708.93294   763.91459    -0.00000     0.00000    -0.00000
  n-local    -7.41712    -7.00209    -6.56488     0.01001    -0.00013    -0.00004
  augment    -0.77238    -0.77242    -0.71476     0.00000     0.00000     0.00000
  Kinetic   122.77159   116.87224   137.32015     0.45981     0.00013     0.00013
  Fock        0.00000     0.00000     0.00000     0.00000     0.00000     0.00000
  -------------------------------------------------------------------------------------
  Total      -0.58373    -0.58373    -0.15530     0.00000     0.00000     0.00000
  in kB     -27.94800   -27.94800    -7.43557     0.00000     0.00000     0.00000
  external pressure =      -21.11 kB  Pullay stress =        0.00 kB


 VOLUME and BASIS-vectors are now :
 -----------------------------------------------------------------------------
  energy-cutoff  :      400.00
  volume of cell :       33.46
      direct lattice vectors                 reciprocal lattice vectors
     1.236186615 -2.141138024  0.000000000     0.404469676 -0.233520677  0.000000000
     1.236186615  2.141138024  0.000000000     0.404469676  0.233520677  0.000000000
     0.000000000  0.000000000  6.321421945     0.000000000  0.000000000  0.158192256

  length of vectors
     2.472373229  2.472373229  6.321421945     0.467041353  0.467041353  0.158192256


 FORCES acting on ions
    electron-ion (+dipol)            ewald-force                    non-local-force                 convergence-correction
 -----------------------------------------------------------------------------------------------
   -.922E-11 0.180E-05 0.162E-13   -.749E-14 -.474E-09 -.304E-17   -.208E-15 0.583E-15 0.424E-21   -.716E-12 -.113E-03 -.499E-11
   -.919E-11 -.180E-05 0.701E-12   0.823E-14 0.474E-09 0.304E-17   0.125E-15 -.472E-15 -.424E-21   -.935E-12 0.113E-03 -.488E-11
 -----------------------------------------------------------------------------------------------
   -.184E-10 0.913E-11 0.718E-12   0.743E-15 -.924E-15 0.000E+00   -.833E-16 0.111E-15 0.000E+00   -.165E-11 -.360E-12 -.987E-11
 
 
 POSITION                                       TOTAL-FORCE (eV/Angst)
 -----------------------------------------------------------------------------------
      0.61809     -0.35686      3.16071        -0.000000     -0.000000      0.000000
      1.85428      0.35686      3.16071         0.000000      0.000000      0.000000
 -----------------------------------------------------------------------------------
    total drift:                               -0.000000      0.000000     -0.000000


--------------------------------------------------------------------------------------------------------



  FREE ENERGIE OF THE ION-ELECTRON SYSTEM (eV)
  ---------------------------------------------------
  free  energy   TOTEN  =       -18.48035578 eV

  energy  without entropy=      -18.48266960  energy(sigma->0) =      -18.48112705
 


--------------------------------------------------------------------------------------------------------


    POTLOK:  cpu time     15.0718: real time      0.7537


--------------------------------------------------------------------------------------------------------


     LOOP+:  cpu time    470.7547: real time     23.4420
    4ORBIT:  cpu time      0.0016: real time      0.0001



 total charge

# of ion       s       p       d       tot
------------------------------------------
    1        0.861   1.788   0.000   2.649
    2        0.861   1.788   0.000   2.649
--------------------------------------------------
tot          1.723   3.575   0.000   5.298



 magnetization (x)

# of ion       s       p       d       tot
------------------------------------------
    1       -0.000  -0.000   0.000  -0.000
    2       -0.000  -0.000   0.000  -0.000
--------------------------------------------------
tot         -0.000  -0.000   0.000  -0.000
 

 total amount of memory used by VASP MPI-rank0    33661. kBytes
=======================================================================

   base                                    :      30000. kBytes
   nonl-proj                               :        178. kBytes
   fftplans                                :        782. kBytes
   grid                                    :       2445. kBytes
   one-center                              :         12. kBytes
   wavefun                                 :        244. kBytes
 
  
  
 General timing and accounting informations for this job:
 ========================================================
  
                  Total CPU time used (sec):      489.767
                            User time (sec):      423.534
                          System time (sec):       66.233
                         Elapsed time (sec):       25.939
  
                   Maximum memory used (kb):      164544.
                   Average memory used (kb):          N/A
  
                          Minor page faults:        32501
                          Major page faults:          183
                 Voluntary context switches:         1675
