PROCAR lm decomposed + phase
# of k-points:    4         # of bands:   12         # of ions:    2

 k-point     1 :    0.00000000 0.00000000 0.00000000     weight = 0.06250000

band     1 # energy  -18.95110945 # occ.  1.00000000
 
ion      s     py     pz     px    dxy    dyz    dz2    dxz  x2-y2    tot
    1  0.322  0.000  0.000  0.000  0.000  0.000  0.000  0.000  0.000  0.322
    2  0.322  0.000  0.000  0.000  0.000  0.000  0.000  0.000  0.000  0.322
tot    0.643  0.000  0.000  0.000  0.000  0.000  0.000  0.000  0.000  0.643
ion          s             py             pz             px             dxy            dyz            dz2            dxz          dx2-y2  
    1  0.030 -0.563  -0.000  0.000  -0.000  0.000  -0.000 -0.000   0.000  0.000   0.000  0.000   0.000  0.000   0.000  0.000   0.000  0.000   0.318
    2  0.030 -0.563   0.000  0.000   0.000 -0.000  -0.000 -0.000   0.000  0.000   0.000  0.000   0.000  0.000   0.000  0.000   0.000  0.000   0.318
charge 0.635          0.000          0.000          0.000          0.000          0.000          0.000          0.000          0.000          0.635       
 
band     2 # energy   -7.05741833 # occ.  1.00000000
 
ion      s     py     pz     px    dxy    dyz    dz2    dxz  x2-y2    tot
    1  0.000  0.000  0.216  0.000  0.000  0.000  0.000  0.000  0.000  0.216
    2  0.000  0.000  0.216  0.000  0.000  0.000  0.000  0.000  0.000  0.216
tot    0.000  0.000  0.432  0.000  0.000  0.000  0.000  0.000  0.000  0.432
ion          s             py             pz             px             dxy            dyz            dz2            dxz          dx2-y2  
    1  0.000  0.000  -0.000 -0.000   0.404 -0.112   0.000 -0.000   0.000  0.000   0.000  0.000   0.000  0.000   0.000  0.000   0.000  0.000   0.176
    2 -0.000  0.000  -0.000  0.000   0.404 -0.112   0.000 -0.000   0.000  0.000   0.000  0.000   0.000  0.000   0.000  0.000   0.000  0.000   0.176
charge 0.000          0.000          0.352          0.000          0.000          0.000          0.000          0.000          0.000          0.352       
 
band     3 # energy   -2.51844766 # occ.  1.00000002
 
ion      s     py     pz     px    dxy    dyz    dz2    dxz  x2-y2    tot
    1  0.000  0.000  0.000  0.412  0.000  0.000  0.000  0.000  0.000  0.412
    2  0.000  0.000  0.000  0.412  0.000  0.000  0.000  0.000  0.000  0.412
tot    0.000  0.000  0.000  0.823  0.000  0.000  0.000  0.000  0.000  0.823
ion          s             py             pz             px             dxy            dyz            dz2            dxz          dx2-y2  
    1 -0.000  0.000   0.000  0.000   0.000 -0.000  -0.135  0.574   0.000  0.000   0.000  0.000   0.000  0.000   0.000  0.000   0.000  0.000   0.348
    2 -0.000  0.000  -0.000 -0.000   0.000 -0.000   0.135 -0.574   0.000  0.000   0.000  0.000   0.000  0.000   0.000  0.000   0.000  0.000   0.348
charge 0.000          0.000          0.000          0.696          0.000          0.000          0.000          0.000          0.000          0.696       
 
band     4 # energy   -2.51842469 # occ.  1.00000002
 
ion      s     py     pz     px    dxy    dyz    dz2    dxz  x2-y2    tot
    1  0.000  0.412  0.000  0.000  0.000  0.000  0.000  0.000  0.000  0.412
    2  0.000  0.412  0.000  0.000  0.000  0.000  0.000  0.000  0.000  0.412
tot    0.000  0.823  0.000  0.000  0.000  0.000  0.000  0.000  0.000  0.823
ion          s             py             pz             px             dxy            dyz            dz2            dxz          dx2-y2  
    1 -0.000  0.000  -0.245 -0.536  -0.000  0.000  -0.000  0.000   0.000  0.000   0.000  0.000   0.000  0.000   0.000  0.000   0.000  0.000   0.348
    2 -0.000  0.000   0.245  0.536  -0.000  0.000   0.000 -0.000   0.000  0.000   0.000  0.000   0.000  0.000   0.000  0.000   0.000  0.000   0.348
charge 0.000          0.696          0.000          0.000          0.000          0.000          0.000          0.000          0.000          0.696       
 
band     5 # energy    3.27719278 # occ.  0.00000000
 
ion      s     py     pz     px    dxy    dyz    dz2    dxz  x2-y2    tot
    1  0.011  0.000  0.000  0.000  0.000  0.000  0.000  0.000  0.000  0.011
    2  0.011  0.000  0.000  0.000  0.000  0.000  0.000  0.000  0.000  0.011
tot    0.022  0.000  0.000  0.000  0.000  0.000  0.000  0.000  0.000  0.022
ion          s             py             pz             px             dxy            dyz            dz2            dxz          dx2-y2  
    1  0.067  0.082  -0.000 -0.000   0.000  0.000   0.000  0.000   0.000  0.000   0.000  0.000   0.000  0.000   0.000  0.000   0.000  0.000   0.011
    2  0.067  0.082   0.000  0.000   0.000  0.000   0.000  0.000   0.000  0.000   0.000  0.000   0.000  0.000   0.000  0.000   0.000  0.000   0.011
charge 0.022          0.000          0.000          0.000          0.000          0.000          0.000          0.000          0.000          0.022       
 
band     6 # energy    8.37206595 # occ.  0.00000000
 
ion      s     py     pz     px    dxy    dyz    dz2    dxz  x2-y2    tot
    1  0.000  0.000  0.061  0.000  0.000  0.000  0.000  0.000  0.000  0.061
    2  0.000  0.000  0.061  0.000  0.000  0.000  0.000  0.000  0.000  0.061
tot    0.000  0.000  0.123  0.000  0.000  0.000  0.000  0.000  0.000  0.123
ion          s             py             pz             px             dxy            dyz            dz2            dxz          dx2-y2  
    1 -0.000  0.000  -0.000  0.000   0.066  0.226  -0.000 -0.000   0.000  0.000   0.000  0.000   0.000  0.000   0.000  0.000   0.000  0.000   0.056
    2 -0.000 -0.000   0.000  0.000   0.066  0.226  -0.000 -0.000   0.000  0.000   0.000  0.000   0.000  0.000   0.000  0.000   0.000  0.000   0.056
charge 0.000          0.000          0.111          0.000          0.000          0.000          0.000          0.000          0.000          0.111       
 
band     7 # energy    8.80016817 # occ.  0.00000000
 
ion      s     py     pz     px    dxy    dyz    dz2    dxz  x2-y2    tot
    1  0.000  0.263  0.000  0.000  0.000  0.000  0.000  0.000  0.000  0.263
    2  0.000  0.263  0.000  0.000  0.000  0.000  0.000  0.000  0.000  0.263
tot    0.000  0.526  0.000  0.000  0.000  0.000  0.000  0.000  0.000  0.526
ion          s             py             pz             px             dxy            dyz            dz2            dxz          dx2-y2  
    1 -0.000  0.000  -0.367  0.324  -0.000 -0.000  -0.001  0.001   0.000  0.000   0.000  0.000   0.000  0.000   0.000  0.000   0.000  0.000   0.240
    2  0.000 -0.000  -0.367  0.324  -0.000 -0.000  -0.001  0.001   0.000  0.000   0.000  0.000   0.000  0.000   0.000  0.000   0.000  0.000   0.240
charge 0.000          0.479          0.000          0.000          0.000          0.000          0.000          0.000          0.000          0.479       
 
band     8 # energy    8.80018739 # occ.  0.00000000
 
ion      s     py     pz     px    dxy    dyz    dz2    dxz  x2-y2    tot
    1  0.000  0.000  0.000  0.263  0.000  0.000  0.000  0.000  0.000  0.263
    2  0.000  0.000  0.000  0.263  0.000  0.000  0.000  0.000  0.000  0.263
tot    0.000  0.000  0.000  0.526  0.000  0.000  0.000  0.000  0.000  0.526
ion          s             py             pz             px             dxy            dyz            dz2            dxz          dx2-y2  
    1 -0.000  0.000   0.001 -0.001  -0.000  0.000  -0.313  0.377   0.000  0.000   0.000  0.000   0.000  0.000   0.000  0.000   0.000  0.000   0.240
    2 -0.000  0.000   0.001 -0.001  -0.000  0.000  -0.313  0.377   0.000  0.000   0.000  0.000   0.000  0.000   0.000  0.000   0.000  0.000   0.240
charge 0.000          0.000          0.000          0.479          0.000          0.000          0.000          0.000          0.000          0.479       
 
band     9 # energy   11.54880784 # occ.  0.00000000
 
ion      s     py     pz     px    dxy    dyz    dz2    dxz  x2-y2    tot
    1  0.023  0.000  0.000  0.000  0.000  0.000  0.000  0.000  0.000  0.023
    2  0.023  0.000  0.000  0.000  0.000  0.000  0.000  0.000  0.000  0.023
tot    0.046  0.000  0.000  0.000  0.000  0.000  0.000  0.000  0.000  0.046
ion          s             py             pz             px             dxy            dyz            dz2            dxz          dx2-y2  
    1 -0.055 -0.140   0.000  0.000  -0.000 -0.000  -0.000 -0.000   0.000  0.000   0.000  0.000   0.000  0.000   0.000  0.000   0.000  0.000   0.023
    2 -0.055 -0.140  -0.000 -0.000  -0.000 -0.000  -0.000 -0.000   0.000  0.000   0.000  0.000   0.000  0.000   0.000  0.000   0.000  0.000   0.023
charge 0.045          0.000          0.000          0.000          0.000          0.000          0.000          0.000          0.000          0.045       
 
band    10 # energy   11.87823850 # occ.  0.00000000
 
ion      s     py     pz     px    dxy    dyz    dz2    dxz  x2-y2    tot
    1  0.000  0.000  0.391  0.000  0.000  0.000  0.000  0.000  0.000  0.391
    2  0.000  0.000  0.391  0.000  0.000  0.000  0.000  0.000  0.000  0.391
tot    0.000  0.000  0.783  0.000  0.000  0.000  0.000  0.000  0.000  0.783
ion          s             py             pz             px             dxy            dyz            dz2            dxz          dx2-y2  
    1 -0.000  0.000   0.000  0.000  -0.359  0.483   0.000  0.000   0.000  0.000   0.000  0.000   0.000  0.000   0.000  0.000   0.000  0.000   0.362
    2 -0.000  0.000   0.000  0.000   0.359 -0.483  -0.000 -0.000   0.000  0.000   0.000  0.000   0.000  0.000   0.000  0.000   0.000  0.000   0.362
charge 0.000          0.000          0.724          0.000          0.000          0.000          0.000          0.000          0.000          0.724       
 
band    11 # energy   12.82337403 # occ.  0.00000000
 
ion      s     py     pz     px    dxy    dyz    dz2    dxz  x2-y2    tot
    1  0.358  0.000  0.000  0.000  0.000  0.000  0.000  0.000  0.000  0.358
    2  0.358  0.000  0.000  0.000  0.000  0.000  0.000  0.000  0.000  0.358
tot    0.716  0.000  0.000  0.000  0.000  0.000  0.000  0.000  0.000  0.716
ion          s             py             pz             px             dxy            dyz            dz2            dxz          dx2-y2  
    1  0.260 -0.531   0.000  0.000  -0.000 -0.000   0.000 -0.000   0.000  0.000   0.000  0.000   0.000  0.000   0.000  0.000   0.000  0.000   0.349
    2 -0.260  0.531   0.000  0.000  -0.000 -0.000   0.000 -0.000   0.000  0.000   0.000  0.000   0.000  0.000   0.000  0.000   0.000  0.000   0.349
charge 0.699          0.000          0.000          0.000          0.000          0.000          0.000          0.000          0.000          0.699       
 
band    12 # energy   22.92212948 # occ.  0.00000000
 
ion      s     py     pz     px    dxy    dyz    dz2    dxz  x2-y2    tot
    1  0.054  0.000  0.005  0.000  0.000  0.000  0.000  0.000  0.000  0.059
    2  0.054  0.000  0.005  0.000  0.000  0.000  0.000  0.000  0.000  0.059
tot    0.108  0.000  0.010  0.000  0.000  0.000  0.000  0.000  0.000  0.118
ion          s             py             pz             px             dxy            dyz            dz2            dxz          dx2-y2  
    1  0.063  0.213  -0.000 -0.000  -0.043  0.053  -0.000 -0.000   0.000  0.000   0.000  0.000   0.000  0.000   0.000  0.000   0.000  0.000   0.054
    2  0.063  0.213  -0.000  0.000  -0.043  0.053   0.000 -0.000   0.000  0.000   0.000  0.000   0.000  0.000   0.000  0.000   0.000  0.000   0.054
charge 0.099          0.000          0.009          0.000          0.000          0.000          0.000          0.000          0.000          0.108       
 

 k-point     2 :    0.25000000 0.00000000 0.00000000     weight = 0.37500000

band     1 # energy  -17.49195613 # occ.  1.00000000
 
ion      s     py     pz     px    dxy    dyz    dz2    dxz  x2-y2    tot
    1  0.299  0.008  0.000  0.023  0.000  0.000  0.000  0.000  0.000  0.329
    2  0.299  0.008  0.000  0.023  0.000  0.000  0.000  0.000  0.000  0.329
tot    0.598  0.015  0.000  0.045  0.000  0.000  0.000  0.000  0.000  0.658
ion          s             py             pz             px             dxy            dyz            dz2            dxz          dx2-y2  
    1 -0.152 -0.522  -0.072  0.024   0.000 -0.000   0.124 -0.042   0.000  0.000   0.000  0.000   0.000  0.000   0.000  0.000   0.000  0.000   0.319
    2 -0.155 -0.521  -0.073  0.019   0.000  0.000   0.127 -0.032   0.000  0.000   0.000  0.000   0.000  0.000   0.000  0.000   0.000  0.000   0.319
charge 0.591          0.011          0.000          0.034          0.000          0.000          0.000          0.000          0.000          0.637       
 
band     2 # energy   -6.90193723 # occ.  1.00000000
 
ion      s     py     pz     px    dxy    dyz    dz2    dxz  x2-y2    tot
    1  0.099  0.070  0.000  0.209  0.000  0.000  0.000  0.000  0.000  0.378
    2  0.099  0.070  0.000  0.209  0.000  0.000  0.000  0.000  0.000  0.378
tot    0.199  0.139  0.000  0.417  0.000  0.000  0.000  0.000  0.000  0.755
ion          s             py             pz             px             dxy            dyz            dz2            dxz          dx2-y2  
    1 -0.167  0.267  -0.219 -0.095  -0.000 -0.000   0.379  0.165   0.000  0.000   0.000  0.000   0.000  0.000   0.000  0.000   0.000  0.000   0.327
    2  0.276 -0.152   0.083  0.224  -0.000  0.000  -0.144 -0.388   0.000  0.000   0.000  0.000   0.000  0.000   0.000  0.000   0.000  0.000   0.327
charge 0.199          0.114          0.000          0.342          0.000          0.000          0.000          0.000          0.000          0.655       
 
band     3 # energy   -5.34261085 # occ.  1.00000000
 
ion      s     py     pz     px    dxy    dyz    dz2    dxz  x2-y2    tot
    1  0.000  0.000  0.223  0.000  0.000  0.000  0.000  0.000  0.000  0.223
    2  0.000  0.000  0.223  0.000  0.000  0.000  0.000  0.000  0.000  0.223
tot    0.000  0.000  0.446  0.000  0.000  0.000  0.000  0.000  0.000  0.446
ion          s             py             pz             px             dxy            dyz            dz2            dxz          dx2-y2  
    1 -0.000  0.000  -0.000  0.000   0.422  0.078   0.000  0.000   0.000  0.000   0.000  0.000   0.000  0.000   0.000  0.000   0.000  0.000   0.184
    2  0.000  0.000   0.000 -0.000   0.424  0.062   0.000  0.000   0.000  0.000   0.000  0.000   0.000  0.000   0.000  0.000   0.000  0.000   0.184
charge 0.000          0.000          0.368          0.000          0.000          0.000          0.000          0.000          0.000          0.368       
 
band     4 # energy   -4.51744411 # occ.  1.00000000
 
ion      s     py     pz     px    dxy    dyz    dz2    dxz  x2-y2    tot
    1  0.000  0.297  0.000  0.099  0.000  0.000  0.000  0.000  0.000  0.395
    2  0.000  0.297  0.000  0.099  0.000  0.000  0.000  0.000  0.000  0.395
tot    0.000  0.593  0.000  0.198  0.000  0.000  0.000  0.000  0.000  0.791
ion          s             py             pz             px             dxy            dyz            dz2            dxz          dx2-y2  
    1 -0.000  0.000   0.204 -0.453   0.000  0.000   0.118 -0.262   0.000  0.000   0.000  0.000   0.000  0.000   0.000  0.000   0.000  0.000   0.330
    2  0.000  0.000   0.163  0.470   0.000 -0.000   0.094  0.271   0.000  0.000   0.000  0.000   0.000  0.000   0.000  0.000   0.000  0.000   0.330
charge 0.000          0.494          0.000          0.165          0.000          0.000          0.000          0.000          0.000          0.659       
 
band     5 # energy    5.26496532 # occ.  0.00000000
 
ion      s     py     pz     px    dxy    dyz    dz2    dxz  x2-y2    tot
    1  0.008  0.001  0.000  0.003  0.000  0.000  0.000  0.000  0.000  0.012
    2  0.008  0.001  0.000  0.003  0.000  0.000  0.000  0.000  0.000  0.012
tot    0.017  0.002  0.000  0.006  0.000  0.000  0.000  0.000  0.000  0.024
ion          s             py             pz             px             dxy            dyz            dz2            dxz          dx2-y2  
    1 -0.055  0.072   0.027  0.010   0.000  0.000  -0.047 -0.018   0.000  0.000   0.000  0.000   0.000  0.000   0.000  0.000   0.000  0.000   0.012
    2 -0.036  0.084   0.023  0.019   0.000  0.000  -0.039 -0.032   0.000  0.000   0.000  0.000   0.000  0.000   0.000  0.000   0.000  0.000   0.012
charge 0.017          0.002          0.000          0.005          0.000          0.000          0.000          0.000          0.000          0.023       
 
band     6 # energy    7.69986889 # occ.  0.00000000
 
ion      s     py     pz     px    dxy    dyz    dz2    dxz  x2-y2    tot
    1  0.000  0.000  0.304  0.000  0.000  0.000  0.000  0.000  0.000  0.304
    2  0.000  0.000  0.304  0.000  0.000  0.000  0.000  0.000  0.000  0.304
tot    0.000  0.000  0.608  0.000  0.000  0.000  0.000  0.000  0.000  0.608
ion          s             py             pz             px             dxy            dyz            dz2            dxz          dx2-y2  
    1 -0.000  0.000  -0.000  0.000   0.503 -0.145   0.000 -0.000   0.000  0.000   0.000  0.000   0.000  0.000   0.000  0.000   0.000  0.000   0.274
    2 -0.000 -0.000  -0.000  0.000  -0.518  0.075   0.000 -0.000   0.000  0.000   0.000  0.000   0.000  0.000   0.000  0.000   0.000  0.000   0.274
charge 0.000          0.000          0.549          0.000          0.000          0.000          0.000          0.000          0.000          0.549       
 
band     7 # energy    8.48208250 # occ.  0.00000000
 
ion      s     py     pz     px    dxy    dyz    dz2    dxz  x2-y2    tot
    1  0.118  0.029  0.000  0.088  0.000  0.000  0.000  0.000  0.000  0.235
    2  0.118  0.029  0.000  0.088  0.000  0.000  0.000  0.000  0.000  0.235
tot    0.236  0.059  0.000  0.176  0.000  0.000  0.000  0.000  0.000  0.470
ion          s             py             pz             px             dxy            dyz            dz2            dxz          dx2-y2  
    1  0.287 -0.185  -0.029  0.161  -0.000  0.000   0.051 -0.278   0.000  0.000   0.000  0.000   0.000  0.000   0.000  0.000   0.000  0.000   0.223
    2  0.045  0.338  -0.103  0.126   0.000  0.000   0.179 -0.219   0.000  0.000   0.000  0.000   0.000  0.000   0.000  0.000   0.000  0.000   0.223
charge 0.233          0.053          0.000          0.160          0.000          0.000          0.000          0.000          0.000          0.446       
 
band     8 # energy   10.19569461 # occ.  0.00000000
 
ion      s     py     pz     px    dxy    dyz    dz2    dxz  x2-y2    tot
    1  0.000  0.000  0.071  0.000  0.000  0.000  0.000  0.000  0.000  0.071
    2  0.000  0.000  0.071  0.000  0.000  0.000  0.000  0.000  0.000  0.071
tot    0.000  0.000  0.141  0.000  0.000  0.000  0.000  0.000  0.000  0.141
ion          s             py             pz             px             dxy            dyz            dz2            dxz          dx2-y2  
    1  0.000 -0.000   0.000 -0.000  -0.208 -0.146  -0.000  0.000   0.000  0.000   0.000  0.000   0.000  0.000   0.000  0.000   0.000  0.000   0.065
    2 -0.000  0.000   0.000 -0.000  -0.065 -0.246  -0.000 -0.000   0.000  0.000   0.000  0.000   0.000  0.000   0.000  0.000   0.000  0.000   0.065
charge 0.000          0.000          0.130          0.000          0.000          0.000          0.000          0.000          0.000          0.130       
 
band     9 # energy   13.41050369 # occ.  0.00000000
 
ion      s     py     pz     px    dxy    dyz    dz2    dxz  x2-y2    tot
    1  0.023  0.001  0.000  0.004  0.000  0.000  0.000  0.000  0.000  0.029
    2  0.023  0.001  0.000  0.004  0.000  0.000  0.000  0.000  0.000  0.029
tot    0.046  0.003  0.000  0.009  0.000  0.000  0.000  0.000  0.000  0.058
ion          s             py             pz             px             dxy            dyz            dz2            dxz          dx2-y2  
    1  0.119  0.091   0.019 -0.032   0.000 -0.000  -0.034  0.056   0.000  0.000   0.000  0.000   0.000  0.000   0.000  0.000   0.000  0.000   0.028
    2  0.056  0.139   0.036 -0.010  -0.000  0.000  -0.063  0.018   0.000  0.000   0.000  0.000   0.000  0.000   0.000  0.000   0.000  0.000   0.028
charge 0.045          0.003          0.000          0.008          0.000          0.000          0.000          0.000          0.000          0.056       
 
band    10 # energy   13.87415129 # occ.  0.00000000
 
ion      s     py     pz     px    dxy    dyz    dz2    dxz  x2-y2    tot
    1  0.000  0.225  0.000  0.075  0.000  0.000  0.000  0.000  0.000  0.301
    2  0.000  0.225  0.000  0.075  0.000  0.000  0.000  0.000  0.000  0.301
tot    0.000  0.451  0.000  0.150  0.000  0.000  0.000  0.000  0.000  0.601
ion          s             py             pz             px             dxy            dyz            dz2            dxz          dx2-y2  
    1  0.000 -0.000   0.137 -0.439   0.000 -0.000   0.079 -0.253   0.000  0.000   0.000  0.000   0.000  0.000   0.000  0.000   0.000  0.000   0.282
    2 -0.000 -0.000  -0.297 -0.351  -0.000 -0.000  -0.171 -0.203   0.000  0.000   0.000  0.000   0.000  0.000   0.000  0.000   0.000  0.000   0.282
charge 0.000          0.423          0.000          0.141          0.000          0.000          0.000          0.000          0.000          0.563       
 
band    11 # energy   15.53023310 # occ.  0.00000000
 
ion      s     py     pz     px    dxy    dyz    dz2    dxz  x2-y2    tot
    1  0.151  0.043  0.000  0.129  0.000  0.000  0.000  0.000  0.000  0.322
    2  0.151  0.043  0.000  0.129  0.000  0.000  0.000  0.000  0.000  0.322
tot    0.302  0.086  0.000  0.257  0.000  0.000  0.000  0.000  0.000  0.645
ion          s             py             pz             px             dxy            dyz            dz2            dxz          dx2-y2  
    1  0.380  0.030   0.085 -0.183  -0.000 -0.000  -0.147  0.317   0.000  0.000   0.000  0.000   0.000  0.000   0.000  0.000   0.000  0.000   0.308
    2 -0.341 -0.171  -0.022  0.200   0.000  0.000   0.038 -0.347   0.000  0.000   0.000  0.000   0.000  0.000   0.000  0.000   0.000  0.000   0.308
charge 0.291          0.081          0.000          0.244          0.000          0.000          0.000          0.000          0.000          0.616       
 
band    12 # energy   20.38777415 # occ.  0.00000000
 
ion      s     py     pz     px    dxy    dyz    dz2    dxz  x2-y2    tot
    1  0.000  0.000  0.058  0.000  0.000  0.000  0.000  0.000  0.000  0.058
    2  0.000  0.000  0.057  0.000  0.000  0.000  0.000  0.000  0.000  0.057
tot    0.000  0.000  0.114  0.000  0.000  0.000  0.000  0.000  0.000  0.114
ion          s             py             pz             px             dxy            dyz            dz2            dxz          dx2-y2  
    1 -0.001 -0.003   0.000 -0.000  -0.225  0.070   0.000  0.001   0.000  0.000   0.000  0.000   0.000  0.000   0.000  0.000   0.000  0.000   0.056
    2 -0.001  0.003   0.001 -0.000   0.007 -0.234  -0.002  0.001   0.000  0.000   0.000  0.000   0.000  0.000   0.000  0.000   0.000  0.000   0.055
charge 0.000          0.000          0.111          0.000          0.000          0.000          0.000          0.000          0.000          0.111       
 

 k-point     3 :    0.50000000 0.00000000 0.00000000     weight = 0.18750000

band     1 # energy  -13.74379888 # occ.  1.00000000
 
ion      s     py     pz     px    dxy    dyz    dz2    dxz  x2-y2    tot
    1  0.299  0.016  0.000  0.047  0.000  0.000  0.000  0.000  0.000  0.362
    2  0.299  0.016  0.000  0.047  0.000  0.000  0.000  0.000  0.000  0.362
tot    0.598  0.031  0.000  0.094  0.000  0.000  0.000  0.000  0.000  0.724
ion          s             py             pz             px             dxy            dyz            dz2            dxz          dx2-y2  
    1  0.483  0.253  -0.098 -0.051   0.000 -0.000   0.170  0.089   0.000  0.000   0.000  0.000   0.000  0.000   0.000  0.000   0.000  0.000   0.346
    2  0.460 -0.292   0.094 -0.059   0.000 -0.000  -0.162  0.103   0.000  0.000   0.000  0.000   0.000  0.000   0.000  0.000   0.000  0.000   0.346
charge 0.594          0.025          0.000          0.074          0.000          0.000          0.000          0.000          0.000          0.692       
 
band     2 # energy  -12.67614214 # occ.  1.00000000
 
ion      s     py     pz     px    dxy    dyz    dz2    dxz  x2-y2    tot
    1  0.138  0.049  0.000  0.146  0.000  0.000  0.000  0.000  0.000  0.333
    2  0.138  0.049  0.000  0.146  0.000  0.000  0.000  0.000  0.000  0.333
tot    0.277  0.097  0.000  0.292  0.000  0.000  0.000  0.000  0.000  0.666
ion          s             py             pz             px             dxy            dyz            dz2            dxz          dx2-y2  
    1  0.131 -0.347   0.069 -0.183   0.000  0.000  -0.120  0.317   0.000  0.000   0.000  0.000   0.000  0.000   0.000  0.000   0.000  0.000   0.291
    2  0.235  0.287  -0.124 -0.151   0.000  0.000   0.215  0.262   0.000  0.000   0.000  0.000   0.000  0.000   0.000  0.000   0.000  0.000   0.291
charge 0.275          0.077          0.000          0.230          0.000          0.000          0.000          0.000          0.000          0.581       
 
band     3 # energy   -5.87675988 # occ.  1.00000000
 
ion      s     py     pz     px    dxy    dyz    dz2    dxz  x2-y2    tot
    1  0.000  0.294  0.000  0.098  0.000  0.000  0.000  0.000  0.000  0.391
    2  0.000  0.294  0.000  0.098  0.000  0.000  0.000  0.000  0.000  0.391
tot    0.000  0.587  0.000  0.196  0.000  0.000  0.000  0.000  0.000  0.783
ion          s             py             pz             px             dxy            dyz            dz2            dxz          dx2-y2  
    1 -0.000 -0.000   0.373  0.321  -0.000  0.000   0.215  0.185   0.000  0.000   0.000  0.000   0.000  0.000   0.000  0.000   0.000  0.000   0.323
    2 -0.000 -0.000  -0.465  0.163   0.000  0.000  -0.268  0.094   0.000  0.000   0.000  0.000   0.000  0.000   0.000  0.000   0.000  0.000   0.323
charge 0.000          0.485          0.000          0.162          0.000          0.000          0.000          0.000          0.000          0.646       
 
band     4 # energy   -1.84194980 # occ.  0.99880164
 
ion      s     py     pz     px    dxy    dyz    dz2    dxz  x2-y2    tot
    1  0.000  0.000  0.255  0.000  0.000  0.000  0.000  0.000  0.000  0.255
    2  0.000  0.000  0.255  0.000  0.000  0.000  0.000  0.000  0.000  0.255
tot    0.000  0.000  0.511  0.000  0.000  0.000  0.000  0.000  0.000  0.511
ion          s             py             pz             px             dxy            dyz            dz2            dxz          dx2-y2  
    1  0.000 -0.000   0.000  0.000   0.279  0.372   0.000  0.000   0.000  0.000   0.000  0.000   0.000  0.000   0.000  0.000   0.000  0.000   0.216
    2  0.000 -0.000   0.000  0.000   0.462 -0.056   0.000  0.000   0.000  0.000   0.000  0.000   0.000  0.000   0.000  0.000   0.000  0.000   0.216
charge 0.000          0.000          0.433          0.000          0.000          0.000          0.000          0.000          0.000          0.433       
 
band     5 # energy    2.18998267 # occ. -0.00000000
 
ion      s     py     pz     px    dxy    dyz    dz2    dxz  x2-y2    tot
    1  0.000  0.000  0.226  0.000  0.000  0.000  0.000  0.000  0.000  0.226
    2  0.000  0.000  0.226  0.000  0.000  0.000  0.000  0.000  0.000  0.226
tot    0.000  0.000  0.451  0.000  0.000  0.000  0.000  0.000  0.000  0.451
ion          s             py             pz             px             dxy            dyz            dz2            dxz          dx2-y2  
    1 -0.000 -0.000   0.000 -0.000  -0.278 -0.345   0.000 -0.000   0.000  0.000   0.000  0.000   0.000  0.000   0.000  0.000   0.000  0.000   0.196
    2 -0.000 -0.000  -0.000 -0.000   0.438 -0.068  -0.000 -0.000   0.000  0.000   0.000  0.000   0.000  0.000   0.000  0.000   0.000  0.000   0.196
charge 0.000          0.000          0.392          0.000          0.000          0.000          0.000          0.000          0.000          0.392       
 
band     6 # energy    7.80289444 # occ.  0.00000000
 
ion      s     py     pz     px    dxy    dyz    dz2    dxz  x2-y2    tot
    1  0.185  0.010  0.000  0.031  0.000  0.000  0.000  0.000  0.000  0.226
    2  0.185  0.010  0.000  0.031  0.000  0.000  0.000  0.000  0.000  0.226
tot    0.369  0.021  0.000  0.062  0.000  0.000  0.000  0.000  0.000  0.452
ion          s             py             pz             px             dxy            dyz            dz2            dxz          dx2-y2  
    1 -0.347 -0.249   0.079  0.056  -0.000  0.000  -0.136 -0.098   0.000  0.000   0.000  0.000   0.000  0.000   0.000  0.000   0.000  0.000   0.220
    2  0.389 -0.176   0.088 -0.040  -0.000 -0.000  -0.152  0.069   0.000  0.000   0.000  0.000   0.000  0.000   0.000  0.000   0.000  0.000   0.220
charge 0.365          0.019          0.000          0.056          0.000          0.000          0.000          0.000          0.000          0.440       
 
band     7 # energy   11.07523881 # occ.  0.00000000
 
ion      s     py     pz     px    dxy    dyz    dz2    dxz  x2-y2    tot
    1  0.005  0.003  0.000  0.010  0.000  0.000  0.000  0.000  0.000  0.018
    2  0.005  0.003  0.000  0.010  0.000  0.000  0.000  0.000  0.000  0.018
tot    0.010  0.007  0.000  0.020  0.000  0.000  0.000  0.000  0.000  0.036
ion          s             py             pz             px             dxy            dyz            dz2            dxz          dx2-y2  
    1 -0.041 -0.055   0.033  0.045   0.000 -0.000  -0.056 -0.077   0.000  0.000   0.000  0.000   0.000  0.000   0.000  0.000   0.000  0.000   0.017
    2 -0.068  0.007  -0.055  0.006  -0.000  0.000   0.095 -0.011   0.000  0.000   0.000  0.000   0.000  0.000   0.000  0.000   0.000  0.000   0.017
charge 0.009          0.006          0.000          0.018          0.000          0.000          0.000          0.000          0.000          0.034       
 
band     8 # energy   11.24161882 # occ.  0.00000000
 
ion      s     py     pz     px    dxy    dyz    dz2    dxz  x2-y2    tot
    1  0.002  0.004  0.000  0.012  0.000  0.000  0.000  0.000  0.000  0.018