<?xml version="1.0" encoding="ISO-8859-1"?>
<modeling>
 <generator>
  <i name="program" type="string">vasp </i>
  <i name="version" type="string">6.5.0  </i>
  <i name="subversion" type="string">16Dec24 (build Mar 16 2025 21:55:21) complex                          parallel </i>
  <i name="platform" type="string">LinuxIFC </i>
  <i name="date" type="string">2026 01 27 </i>
  <i name="time" type="string">11:15:14 </i>
 </generator>
 <incar>
  <i type="string" name="PREC">Accurate</i>
  <i type="string" name="ALGO">Fast</i>
  <i type="int" name="ISPIN">     2</i>
  <i type="int" name="ICHARG">    11</i>
  <i type="int" name="IBRION">     2</i>
  <i name="EDIFF">      0.00001000</i>
  <i name="EDIFFG">     -0.01000000</i>
  <i type="int" name="NSW">     0</i>
  <i type="int" name="ISIF">     3</i>
  <i type="int" name="NEDOS">  3001</i>
  <v name="MAGMOM">      1.00000000      1.00000000</v>
  <i type="logical" name="LREAL"> F  </i>
  <i name="EMIN">    -15.00000000</i>
  <i name="EMAX">     15.00000000</i>
  <i type="int" name="ISMEAR">     1</i>
  <i name="SIGMA">      0.20000000</i>
  <i type="logical" name="LWAVE"> F  </i>
  <i type="logical" name="LCHARG"> F  </i>
  <i type="int" name="LORBIT">    12</i>
 </incar>
 <primitive_cell>
  <structure name="primitive_cell" >
   <crystal>
    <varray name="basis" >
     <v>       1.23618661      -2.14113802       0.00000000 </v>
     <v>       1.23618661       2.14113802       0.00000000 </v>
     <v>       0.00000000       0.00000000       6.32142195 </v>
    </varray>
    <i name="volume">     33.46366287 </i>
    <varray name="rec_basis" >
     <v>       0.40446968      -0.23352068       0.00000000 </v>
     <v>       0.40446968       0.23352068       0.00000000 </v>
     <v>       0.00000000       0.00000000       0.15819226 </v>
    </varray>
   </crystal>
   <varray name="positions" >
    <v>       0.33333333       0.16666667       0.50000000 </v>
    <v>       0.66666667       0.83333333       0.50000000 </v>
   </varray>
  </structure>
  <varray name="primitive_index" >
   <v type="int" >        1 </v>
   <v type="int" >        2 </v>
  </varray>
 </primitive_cell>
 <kpoints>
  <generation param="Gamma">
   <v type="int" name="divisions">       4        4        1 </v>
   <v name="usershift">      0.00000000       0.00000000       0.00000000 </v>
   <v name="genvec1">      0.25000000       0.00000000       0.00000000 </v>
   <v name="genvec2">      0.00000000       0.25000000       0.00000000 </v>
   <v name="genvec3">      0.00000000       0.00000000       1.00000000 </v>
   <v name="shift">      0.00000000       0.00000000       0.00000000 </v>
  </generation>
  <varray name="kpointlist" >
   <v>       0.00000000       0.00000000       0.00000000 </v>
   <v>       0.25000000       0.00000000       0.00000000 </v>
   <v>       0.50000000       0.00000000       0.00000000 </v>
   <v>       0.25000000       0.25000000       0.00000000 </v>
  </varray>
  <varray name="weights" >
   <v>       0.06250000 </v>
   <v>       0.37500000 </v>
   <v>       0.18750000 </v>
   <v>       0.37500000 </v>
  </varray>
 </kpoints>
 <parameters>
  <separator name="general" >
   <i type="string" name="SYSTEM">unknown system</i>
   <i type="logical" name="LCOMPAT"> F  </i>
  </separator>
  <separator name="electronic" >
   <i type="string" name="PREC">accura</i>
   <i name="ENMAX">    400.00000000</i>
   <i name="ENAUG">    644.87300000</i>
   <i name="EDIFF">      0.00001000</i>
   <i type="int" name="IALGO">    68</i>
   <i type="int" name="IWAVPR">    10</i>
   <i type="int" name="NBANDS">    12</i>
   <i type="int" name="NBANDSLOW">    -1</i>
   <i type="int" name="NBANDSHIGH">    -1</i>
   <i name="NELECT">      8.00000000</i>
   <i type="int" name="TURBO">     0</i>
   <i type="int" name="IRESTART">     0</i>
   <i type="int" name="NREBOOT">     0</i>
   <i type="int" name="NMIN">     0</i>
   <i name="EREF">      0.00000000</i>
   <separator name="electronic smearing" >
    <i type="int" name="ISMEAR">     1</i>
    <i name="SIGMA">      0.20000000</i>
    <i name="KSPACING">      0.50000000</i>
    <i type="logical" name="KGAMMA"> T  </i>
    <i type="logical" name="KBLOWUP"> T  </i>
   </separator>
   <separator name="electronic projectors" >
    <i type="logical" name="LREAL"> F  </i>
    <v name="ROPT">      0.00000000</v>
    <i type="int" name="LMAXPAW">  -100</i>
    <i type="int" name="LMAXMIX">     2</i>
    <i type="logical" name="NLSPLINE"> F  </i>
   </separator>
   <separator name="electronic startup" >
    <i type="int" name="ISTART">     0</i>
    <i type="int" name="ICHARG">    11</i>
    <i type="int" name="INIWAV">     1</i>
   </separator>
   <separator name="electronic spin" >
    <i type="int" name="ISPIN">     2</i>
    <i type="logical" name="LNONCOLLINEAR"> F  </i>
    <v name="MAGMOM">      1.00000000      1.00000000</v>
    <i name="NUPDOWN">     -1.00000000</i>
    <i type="logical" name="LSORBIT"> F  </i>
    <v name="SAXIS">      0.00000000      0.00000000      1.00000000</v>
    <i type="logical" name="LSPIRAL"> F  </i>
    <v name="QSPIRAL">      0.00000000      0.00000000      0.00000000</v>
    <i type="logical" name="LZEROZ"> F  </i>
   </separator>
   <separator name="electronic exchange-correlation" >
    <i type="logical" name="LASPH"> F  </i>
   </separator>
   <separator name="electronic convergence" >
    <i type="int" name="NELM">    60</i>
    <i type="int" name="NELMDL">    -5</i>
    <i type="int" name="NELMIN">     2</i>
    <i name="ENINI">    400.00000000</i>
    <separator name="electronic convergence detail" >
     <i type="logical" name="LDIAG"> T  </i>
     <i type="logical" name="LSUBROT"> F  </i>
     <i name="WEIMIN">      0.00000000</i>
     <i name="EBREAK">      0.00000021</i>
     <i name="DEPER">      0.30000000</i>
     <i type="int" name="NRMM">     4</i>
     <i name="TIME">      0.40000000</i>
    </separator>
   </separator>
   <separator name="electronic mixer" >
    <i name="AMIX">      0.40000000</i>
    <i name="BMIX">      1.00000000</i>
    <i name="AMIN">      0.10000000</i>
    <i name="AMIX_MAG">      1.60000000</i>
    <i name="BMIX_MAG">      1.00000000</i>
    <separator name="electronic mixer details" >
     <i type="int" name="IMIX">     4</i>
     <i type="logical" name="MIXFIRST"> F  </i>
     <i type="int" name="MAXMIX">   -45</i>
     <i name="WC">    100.00000000</i>
     <i type="int" name="INIMIX">     1</i>
     <i type="int" name="MIXPRE">     1</i>
     <i type="int" name="MREMOVE">     5</i>
    </separator>
   </separator>
   <separator name="electronic dipolcorrection" >
    <i type="logical" name="LDIPOL"> F  </i>
    <i type="logical" name="LMONO"> F  </i>
    <i type="int" name="IDIPOL">     0</i>
    <i name="EPSILON">      1.00000000</i>
    <v name="DIPOL">   -100.00000000   -100.00000000   -100.00000000</v>
    <i name="EFIELD">      0.00000000</i>
    <i type="logical" name="LVACPOTAV"> F  </i>
   </separator>
  </separator>
  <separator name="grids" >
   <i type="int" name="NGX">    16</i>
   <i type="int" name="NGY">    16</i>
   <i type="int" name="NGZ">    42</i>
   <i type="int" name="NGXF">    32</i>
   <i type="int" name="NGYF">    32</i>
   <i type="int" name="NGZF">    84</i>
   <i type="logical" name="ADDGRID"> F  </i>
  </separator>
  <separator name="ionic" >
   <i type="int" name="NSW">     0</i>
   <i type="int" name="IBRION">    -1</i>
   <i type="int" name="MDALGO">     0</i>
   <i type="int" name="ISIF">     3</i>
   <i name="PSTRESS">      0.00000000</i>
   <i name="EDIFFG">     -0.01000000</i>
   <i type="int" name="NFREE">     1</i>
   <i name="POTIM">      0.50000000</i>
   <i name="SMASS">     -3.00000000</i>
   <i name="SCALEE">      1.00000000</i>
  </separator>
  <separator name="ionic md" >
   <i name="TEBEG">      0.00010000</i>
   <i name="TEEND">      0.00010000</i>
   <i type="int" name="NBLOCK">     1</i>
   <i type="int" name="KBLOCK">     1</i>
   <i type="int" name="NPACO">   256</i>
   <i name="APACO">     10.00000000</i>
  </separator>
  <separator name="symmetry" >
   <i type="int" name="ISYM">     2</i>
   <i name="SYMPREC">      0.00001000</i>
  </separator>
  <separator name="dos" >
   <i type="int" name="LORBIT">    12</i>
   <v name="RWIGS">     -1.00000000</v>
   <i type="int" name="NEDOS">  3001</i>
   <i name="EMIN">    -15.00000000</i>
   <i name="EMAX">     15.00000000</i>
   <i name="EFERMI">      0.00000000</i>
  </separator>
  <separator name="writing" >
   <i type="int" name="NWRITE">     2</i>
   <i type="logical" name="LWAVE"> F  </i>
   <i type="logical" name="LDOWNSAMPLE"> F  </i>
   <i type="logical" name="LCHARG"> F  </i>
   <i type="logical" name="LPARD"> F  </i>
   <i type="logical" name="LVTOT"> F  </i>
   <i type="logical" name="LVHAR"> F  </i>
   <i type="logical" name="LELF"> F  </i>
   <i type="logical" name="LOPTICS"> F  </i>
   <v name="STM">      0.00000000      0.00000000      0.00000000      0.00000000      0.00000000      0.00000000      0.00000000</v>
  </separator>
  <separator name="performance" >
   <i type="int" name="NPAR">     4</i>
   <i type="int" name="NSIM">     4</i>
   <i type="int" name="NBLK">    -1</i>
   <i type="logical" name="LPLANE"> T  </i>
   <i type="logical" name="LSCALAPACK"> T  </i>
   <i type="logical" name="LSCAAWARE"> F  </i>
   <i type="logical" name="LSCALU"> F  </i>
   <i type="logical" name="LASYNC"> F  </i>
   <i type="logical" name="LORBITALREAL"> F  </i>
  </separator>
  <separator name="miscellaneous" >
   <i type="int" name="IDIOT">     3</i>
   <i type="int" name="PHON_NSTRUCT">    -1</i>
   <i type="logical" name="LMUSIC"> F  </i>
   <v name="POMASS">     12.01100000</v>
   <v name="DARWINR">      0.00000000</v>
   <v name="DARWINV">      1.00000000</v>
   <i type="logical" name="LCORR"> T  </i>
  </separator>
  <i type="logical" name="GGA_COMPAT"> T  </i>
  <i type="logical" name="LBERRY"> F  </i>
  <i type="int" name="ICORELEVEL">     0</i>
  <i type="logical" name="LDAU"> F  </i>
  <i type="int" name="I_CONSTRAINED_M">     0</i>
  <separator name="electronic exchange-correlation" >
   <i type="string" name="GGA    ">PE</i>
   <i type="string" name="XC_C">1</i>
   <i type="int" name="VOSKOWN">     0</i>
   <i type="logical" name="LHFCALC"> F  </i>
   <i type="string" name="PRECFOCK"></i>
   <i type="logical" name="LSYMGRAD"> F  </i>
   <i type="logical" name="LHFONE"> F  </i>
   <i type="logical" name="LRHFCALC"> F  </i>
   <i type="logical" name="LTHOMAS"> F  </i>
   <i type="logical" name="LMODELHF"> F  </i>
   <i type="logical" name="LFOCKACE"> F  </i>
   <i name="ENCUT4O">     -1.00000000</i>
   <i type="int" name="EXXOEP">     0</i>
   <i type="int" name="FOURORBIT">     0</i>
   <i name="AEXX">      0.00000000</i>
   <i name="HFALPHA">      0.00000000</i>
   <i name="MCALPHA">      0.00000000</i>
   <i name="ALDAX">      1.00000000</i>
   <i name="AGGAX">      1.00000000</i>
   <i name="AMGGAX">      1.00000000</i>
   <i name="ALDAC">      1.00000000</i>
   <i name="AGGAC">      1.00000000</i>
   <i name="AMGGAC">      1.00000000</i>
   <i type="int" name="NKREDX">     1</i>
   <i type="int" name="NKREDY">     1</i>
   <i type="int" name="NKREDZ">     1</i>
   <i type="logical" name="SHIFTRED"> F  </i>
   <i type="logical" name="ODDONLY"> F  </i>
   <i type="logical" name="EVENONLY"> F  </i>
   <i type="int" name="LMAXFOCK">     0</i>
   <i type="int" name="NMAXFOCKAE">     0</i>
   <i type="logical" name="LFOCKAEDFT"> F  </i>
   <i name="HFSCREEN">      0.00000000</i>
   <i name="HFSCREENC">      0.00000000</i>
   <i type="int" name="NBANDSGWLOW">     0</i>
  </separator>
  <separator name="vdW DFT" >
   <i type="logical" name="LUSE_VDW"> F  </i>
   <i type="int" name="IVDW_NL">    -1</i>
   <i type="logical" name="LSPIN_VDW"> F  </i>
   <i name="ZAB_VDW">     -0.84910000</i>
   <i name="GAMMA_VDW">      1.39626340</i>
   <i name="ALPHA_VDW">      0.00000000</i>
   <i name="PARAM1">      0.12340000</i>
   <i name="PARAM2">      1.00000000</i>
   <i name="BPARAM">      6.30000000</i>
   <i name="CPARAM">      0.00930000</i>
  </separator>
  <separator name="model GW" >
   <i type="int" name="MODEL_GW">     0</i>
   <i name="MODEL_EPS0">     10.03909886</i>
   <i name="MODEL_ALPHA">      1.00000000</i>
  </separator>
  <separator name="linear response parameters" >
   <i type="logical" name="LEPSILON"> F  </i>
   <i type="logical" name="LRPA"> F  </i>
   <i type="logical" name="LNABLA"> F  </i>
   <i type="logical" name="LVEL"> F  </i>
   <i name="CSHIFT">      0.10000000</i>
   <i name="OMEGAMAX">     -1.00000000</i>
   <i name="DEG_THRESHOLD">      0.00200000</i>
   <i name="RTIME">     -0.10000000</i>
   <i name="WPLASMAI">      0.00000000</i>
   <v name="DFIELD">      0.00000000      0.00000000      0.00000000</v>
   <v name="WPLASMA">      0.00000000      0.00000000      0.00000000      0.00000000      0.00000000      0.00000000      0.00000000      0.00000000      0.00000000</v>
  </separator>
  <separator name="orbital magnetization" >
   <i type="logical" name="NUCIND"> F  </i>
   <v name="MAGPOS">      0.00000000      0.00000000      0.00000000</v>
   <i type="logical" name="LNICSALL"> T  </i>
   <i type="logical" name="ORBITALMAG"> F  </i>
   <i type="logical" name="LMAGBLOCH"> F  </i>
   <i type="logical" name="LCHIMAG"> F  </i>
   <i type="logical" name="LGAUGE"> T  </i>
   <i type="int" name="MAGATOM">     0</i>
   <v name="MAGDIPOL">      0.00000000      0.00000000      0.00000000</v>
   <v name="AVECCONST">      0.00000000      0.00000000      0.00000000</v>
  </separator>
  <separator name="response functions" >
   <i type="logical" name="LALL_IN_ONE"> F  </i>
   <i type="int" name="IALL_IN_ONE">    -1</i>
   <i type="int" name="NBANDS_WAVE">    -1</i>
   <i type="logical" name="LFINITE_TEMPERATURE"> F  </i>
   <i type="logical" name="LADDER"> F  </i>
   <i type="logical" name="LRPAFORCE"> F  </i>
   <i type="logical" name="LFXC"> F  </i>
   <i type="logical" name="LHARTREE"> T  </i>
   <i type="int" name="IBSE">     2</i>
   <v type="int" name="KPOINT">    -1     0     0     0</v>
   <i type="logical" name="LTCTC"> F  </i>
   <i type="logical" name="LTCTE"> F  </i>
   <i type="logical" name="LTETE"> F  </i>
   <i type="logical" name="LTRIPLET"> F  </i>
   <i type="logical" name="LFXCEPS"> F  </i>
   <i type="logical" name="LFXHEG"> F  </i>
   <i type="int" name="NATURALO">     2</i>
   <i type="logical" name="LHOLEGF"> F  </i>
   <i type="logical" name="L2ORDER"> F  </i>
   <i type="logical" name="LDMP1"> F  </i>
   <i type="logical" name="LMP2LT"> F  </i>
   <i type="logical" name="LSMP2LT"> F  </i>
   <i type="logical" name="LGWLF"> F  </i>
   <i name="ENCUTGW">     -1.60000002</i>
   <i name="ENCUTGWSOFT">     -1.60000002</i>
   <i name="ENCUTLF">     -1.00000000</i>
   <i type="logical" name="ESF_SPLINES"> F  </i>
   <i name="ESF_CONV">      0.01000000</i>
   <i type="int" name="ESF_NINTER">    15</i>
   <i type="int" name="LMAXMP2">    -1</i>
   <i name="SCISSOR">      0.00000000</i>
   <i type="int" name="NOMEGA">     0</i>
   <i type="int" name="NOMEGAR">     0</i>
   <i type="int" name="NBANDSGW">    -1</i>
   <i type="int" name="NBANDSO">    -1</i>
   <i type="int" name="NBANDSV">    -1</i>
   <i type="int" name="NELMGW">     1</i>
   <i type="int" name="NELMHF">     1</i>
   <i type="int" name="DIM">     3</i>
   <i type="int" name="IESPILON">     4</i>
   <i type="int" name="ANTIRES">     0</i>
   <i name="OMEGAMAX">    -30.00000000</i>
   <i name="OMEGAMIN">    -30.00000000</i>
   <i name="OMEGATL">   -200.00000000</i>
   <i type="int" name="OMEGAGRID">     0</i>
   <i name="CSHIFT">     -0.10000000</i>
   <i type="logical" name="LSELFENERGY"> F  </i>
   <i type="logical" name="LSPECTRAL"> F  </i>
   <i type="logical" name="LSPECTRALGW"> F  </i>
   <i type="logical" name="LSINGLES"> F  </i>
   <i type="logical" name="LFERMIGW"> F  </i>
   <i type="logical" name="ODDONLYGW"> F  </i>
   <i type="logical" name="EVENONLYGW"> F  </i>
   <i type="int" name="NKREDLFX">     1</i>
   <i type="int" name="NKREDLFY">     1</i>
   <i type="int" name="NKREDLFZ">     1</i>
   <i type="int" name="MAXMEM">  2800</i>
   <i type="int" name="TELESCOPE">     0</i>
   <i type="int" name="NTAUPAR">    -1</i>
   <i type="int" name="NOMEGAPAR">    -1</i>
   <i name="DAMP_NEWTON">      0.80000001</i>
   <i name="LAMBDA">      1.00000000</i>
  </separator>
  <separator name="External order field" >
   <i name="OFIELD_KAPPA">      0.00000000</i>
   <v name="OFIELD_K">      0.00000000      0.00000000      0.00000000</v>
   <i name="OFIELD_Q6_NEAR">      0.00000000</i>
   <i name="OFIELD_Q6_FAR">      0.00000000</i>
   <i name="OFIELD_A">      0.00000000</i>
  </separator>
  <separator name="optional k-points parameters" >
   <i type="int" name="KPOINTS_OPT_MODE">     1</i>
   <i type="logical" name="LKPOINTS_OPT"> F  </i>
  </separator>
 </parameters>
 <atominfo>
  <atoms>       2 </atoms>
  <types>       1 </types>
  <array name="atoms" >
   <dimension dim="1">ion</dimension>
   <field type="string">element</field>
   <field type="int">atomtype</field>
   <set>
    <rc><c>C </c><c>   1</c></rc>
    <rc><c>C </c><c>   1</c></rc>
   </set>
  </array>
  <array name="atomtypes" >
   <dimension dim="1">type</dimension>
   <field type="int">atomspertype</field>
   <field type="string">element</field>
   <field>mass</field>
   <field>valence</field>
   <field type="string">pseudopotential</field>
   <set>
    <rc><c>   2</c><c>C </c><c>     12.01100000</c><c>      4.00000000</c><c>  PAW_PBE C 08Apr2002                   </c></rc>
   </set>
  </array>
 </atominfo>
 <structure name="initialpos" >
  <crystal>
   <varray name="basis" >
    <v>       1.23618661      -2.14113802       0.00000000 </v>
    <v>       1.23618661       2.14113802       0.00000000 </v>
    <v>       0.00000000       0.00000000       6.32142195 </v>
   </varray>
   <i name="volume">     33.46366287 </i>
   <varray name="rec_basis" >
    <v>       0.40446968      -0.23352068       0.00000000 </v>
    <v>       0.40446968       0.23352068       0.00000000 </v>
    <v>       0.00000000       0.00000000       0.15819226 </v>
   </varray>
  </crystal>
  <varray name="positions" >
   <v>       0.33333333       0.16666667       0.50000000 </v>
   <v>       0.66666667       0.83333333       0.50000000 </v>
  </varray>
  <varray name="selective"  type="logical" >
   <v type="logical" >  T  T  T </v>
   <v type="logical" >  T  T  T </v>
  </varray>
  <nose>
   <v>      -3.00000000       0.00000000       0.00010000       0.00010000 </v>
  </nose>
 </structure>
 <calculation>
  <scstep>
   <time name="dav">   36.50    1.81</time>
   <time name="total">   56.72    2.82</time>
   <energy>
    <i name="alphaZ">      9.81921391 </i>
    <i name="ewald">     39.86390415 </i>
    <i name="hartreedc">   -319.72865298 </i>
    <i name="XCdc">     27.51011951 </i>
    <i name="pawpsdc">    849.54482455 </i>
    <i name="pawaedc">   -850.89422985 </i>
    <i name="eentropy">     -0.02035914 </i>
    <i name="bandstr">    -38.74068118 </i>
    <i name="atom">    294.25444774 </i>
    <i name="e_fr_energy">     11.60858671 </i>
    <i name="e_wo_entrp">     11.62894585 </i>
    <i name="e_0_energy">     11.61537309 </i>
   </energy>
  </scstep>
  <scstep>
   <time name="dav">  117.01    5.83</time>
   <time name="total">  117.04    5.83</time>
   <energy>
    <i name="e_fr_energy">    -17.39325714 </i>
    <i name="e_wo_entrp">    -17.39476315 </i>
    <i name="e_0_energy">    -17.39375914 </i>
   </energy>
  </scstep>
  <scstep>
   <time name="dav">   89.46    4.46</time>
   <time name="total">   89.59    4.47</time>
   <energy>
    <i name="e_fr_energy">    -18.47548661 </i>
    <i name="e_wo_entrp">    -18.47779478 </i>
    <i name="e_0_energy">    -18.47625600 </i>
   </energy>
  </scstep>
  <scstep>
   <time name="dav">   97.81    4.84</time>
   <time name="total">   97.85    4.85</time>
   <energy>
    <i name="e_fr_energy">    -18.48031791 </i>
    <i name="e_wo_entrp">    -18.48263167 </i>
    <i name="e_0_energy">    -18.48108916 </i>
   </energy>
  </scstep>
  <scstep>
   <time name="dav">   36.85    1.84</time>
   <time name="total">   36.88    1.84</time>
   <energy>
    <i name="e_fr_energy">    -18.48035538 </i>
    <i name="e_wo_entrp">    -18.48266921 </i>
    <i name="e_0_energy">    -18.48112666 </i>
   </energy>
  </scstep>
  <scstep>
   <time name="diag">   11.25    0.56</time>
   <time name="diis">    9.98    0.50</time>
   <time name="orth">    2.37    0.12</time>
   <time name="total">   23.65    1.18</time>
   <energy>
    <i name="alphaZ">      9.81921391 </i>
    <i name="ewald">     39.86390415 </i>
    <i name="hartreedc">   -319.72865298 </i>
    <i name="XCdc">     27.51011951 </i>
    <i name="pawpsdc">    849.54482455 </i>
    <i name="pawaedc">   -850.89422985 </i>
    <i name="eentropy">      0.00231382 </i>
    <i name="bandstr">    -68.85229663 </i>
    <i name="atom">    294.25444774 </i>
    <i name="e_fr_energy">    -18.48035578 </i>
    <i name="e_wo_entrp">    -18.48266960 </i>
    <i name="e_0_energy">    -18.48112705 </i>
   </energy>
  </scstep>
  <structure>
   <crystal>
    <varray name="basis" >
     <v>       1.23618661      -2.14113802       0.00000000 </v>
     <v>       1.23618661       2.14113802       0.00000000 </v>
     <v>       0.00000000       0.00000000       6.32142195 </v>
    </varray>
    <i name="volume">     33.46366287 </i>
    <varray name="rec_basis" >
     <v>       0.40446968      -0.23352068       0.00000000 </v>
     <v>       0.40446968       0.23352068       0.00000000 </v>
     <v>       0.00000000       0.00000000       0.15819226 </v>
    </varray>
   </crystal>
   <varray name="positions" >
    <v>       0.33333333       0.16666667       0.50000000 </v>
    <v>       0.66666667       0.83333333       0.50000000 </v>
   </varray>
  </structure>
  <varray name="forces" >
   <v>      -0.00000000      -0.00000000       0.00000000 </v>
   <v>       0.00000000       0.00000000       0.00000000 </v>
  </varray>
  <varray name="stress" >
   <v>     -27.94799861       0.00000000       0.00000000 </v>
   <v>       0.00000000     -27.94799861       0.00000000 </v>
   <v>       0.00000000       0.00000000      -7.43557126 </v>
  </varray>
  <energy>
   <i name="e_fr_energy">    -18.48035578 </i>
   <i name="e_wo_entrp">    -18.48266960 </i>
   <i name="e_0_energy">    -18.48112705 </i>
  </energy>
  <time name="totalsc">  470.75   23.44</time>
  <eigenvalues>
   <array>
    <dimension dim="1">band</dimension>
    <dimension dim="2">kpoint</dimension>
    <dimension dim="3">spin</dimension>
    <field>eigene</field>
    <field>occ</field>
    <set>
     <set comment="spin 1">
      <set comment="kpoint 1">
       <r>  -18.9511    1.0000 </r>
       <r>   -7.0574    1.0000 </r>
       <r>   -2.5184    1.0000 </r>
       <r>   -2.5184    1.0000 </r>
       <r>    3.2772    0.0000 </r>
       <r>    8.3721    0.0000 </r>
       <r>    8.8002    0.0000 </r>
       <r>    8.8002    0.0000 </r>
       <r>   11.5488    0.0000 </r>
       <r>   11.8782    0.0000 </r>
       <r>   12.8234    0.0000 </r>
       <r>   22.9221    0.0000 </r>
      </set>
      <set comment="kpoint 2">
       <r>  -17.4920    1.0000 </r>
       <r>   -6.9019    1.0000 </r>
       <r>   -5.3426    1.0000 </r>
       <r>   -4.5174    1.0000 </r>
       <r>    5.2650    0.0000 </r>
       <r>    7.6999    0.0000 </r>
       <r>    8.4821    0.0000 </r>
       <r>   10.1957    0.0000 </r>
       <r>   13.4105    0.0000 </r>
       <r>   13.8742    0.0000 </r>
       <r>   15.5302    0.0000 </r>
       <r>   20.3878    0.0000 </r>
      </set>
      <set comment="kpoint 3">
       <r>  -13.7438    1.0000 </r>
       <r>  -12.6761    1.0000 </r>
       <r>   -5.8768    1.0000 </r>
       <r>   -1.8419    0.9988 </r>
       <r>    2.1900   -0.0000 </r>
       <r>    7.8029    0.0000 </r>
       <r>   11.0752    0.0000 </r>
       <r>   11.2416    0.0000 </r>
       <r>   14.2463    0.0000 </r>
       <r>   15.9508    0.0000 </r>
       <r>   18.0757    0.0000 </r>
       <r>   18.3946    0.0000 </r>
      </set>
      <set comment="kpoint 4">
       <r>  -14.6870    1.0000 </r>
       <r>  -10.0027    1.0000 </r>
       <r>   -8.4007    1.0000 </r>
       <r>   -2.2142    1.0005 </r>
       <r>    3.3040    0.0000 </r>
       <r>    9.2021    0.0000 </r>
       <r>   11.9906    0.0000 </r>
       <r>   12.6476    0.0000 </r>
       <r>   13.0149    0.0000 </r>
       <r>   15.9634    0.0000 </r>
       <r>   16.7476    0.0000 </r>
       <r>   17.6752    0.0000 </r>
      </set>
     </set>
     <set comment="spin 2">
      <set comment="kpoint 1">
       <r>  -18.9513    1.0000 </r>
       <r>   -7.0579    1.0000 </r>
       <r>   -2.5183    1.0000 </r>
       <r>   -2.5183    1.0000 </r>
       <r>    3.2499    0.0000 </r>
       <r>    8.3698    0.0000 </r>
       <r>    8.8004    0.0000 </r>
       <r>    8.8004    0.0000 </r>
       <r>   11.5080    0.0000 </r>
       <r>   11.8776    0.0000 </r>
       <r>   12.8229    0.0000 </r>
       <r>   22.9117    0.0000 </r>
      </set>
      <set comment="kpoint 2">
       <r>  -17.4921    1.0000 </r>
       <r>   -6.9019    1.0000 </r>
       <r>   -5.3431    1.0000 </r>
       <r>   -4.5173    1.0000 </r>
       <r>    5.2384    0.0000 </r>
       <r>    7.6993    0.0000 </r>
       <r>    8.4817    0.0000 </r>
       <r>   10.1936    0.0000 </r>
       <r>   13.3701    0.0000 </r>
       <r>   13.8744    0.0000 </r>
       <r>   15.5296    0.0000 </r>
       <r>   20.3867    0.0000 </r>
      </set>
      <set comment="kpoint 3">
       <r>  -13.7440    1.0000 </r>
       <r>  -12.6762    1.0000 </r>
       <r>   -5.8766    1.0000 </r>
       <r>   -1.8425    0.9994 </r>
       <r>    2.1895   -0.0000 </r>
       <r>    7.8027    0.0000 </r>
       <r>   11.0532    0.0000 </r>
       <r>   11.2164    0.0000 </r>
       <r>   14.2454    0.0000 </r>
       <r>   15.9488    0.0000 </r>
       <r>   18.0430    0.0000 </r>
       <r>   18.3555    0.0000 </r>
      </set>
      <set comment="kpoint 4">
       <r>  -14.6871    1.0000 </r>
       <r>  -10.0028    1.0000 </r>
       <r>   -8.4007    1.0000 </r>
       <r>   -2.2147    1.0005 </r>
       <r>    3.3034    0.0000 </r>
       <r>    9.1775    0.0000 </r>
       <r>   11.9900    0.0000 </r>
       <r>   12.6465    0.0000 </r>
       <r>   13.0142    0.0000 </r>
       <r>   15.9616    0.0000 </r>
       <r>   16.7109    0.0000 </r>
       <r>   17.6509    0.0000 </r>
      </set>
     </set>
    </set>
   </array>
  </eigenvalues>
  <separator name="orbital magnetization" >
   <v name="MAGDIPOLOUT">      0.00000000      0.00000000      0.00000000</v>
  </separator>
  <dos>
   <i name="efermi">     -1.67465291 </i>
   <total>
    <array>
     <dimension dim="1">gridpoints</dimension>
     <dimension dim="2">spin</dimension>
     <field>energy</field>
     <field>total</field>
     <field>integrated</field>
     <set>
      <set comment="spin 1">
       <r>   -15.0000    42.8244     0.4282 </r>
       <r>   -14.9900    -0.0859     0.4274 </r>
       <r>   -14.9800    -0.0826     0.4266 </r>
       <r>   -14.9700    -0.0762     0.4258 </r>
       <r>   -14.9600    -0.0660     0.4251 </r>
       <r>   -14.9500    -0.0517     0.4246 </r>
       <r>   -14.9400    -0.0327     0.4243 </r>
       <r>   -14.9300    -0.0083     0.4242 </r>
       <r>   -14.9200     0.0218     0.4244 </r>
       <r>   -14.9100     0.0580     0.4250 </r>
       <r>   -14.9000     0.1008     0.4260 </r>
       <r>   -14.8900     0.1503     0.4275 </r>
       <r>   -14.8800     0.2066     0.4296 </r>
       <r>   -14.8700     0.2697     0.4323 </r>
       <r>   -14.8600     0.3393     0.4357 </r>
       <r>   -14.8500     0.4151     0.4398 </r>
       <r>   -14.8400     0.4965     0.4448 </r>
       <r>   -14.8300     0.5827     0.4506 </r>
       <r>   -14.8200     0.6728     0.4573 </r>
       <r>   -14.8100     0.7658     0.4650 </r>
       <r>   -14.8000     0.8602     0.4736 </r>
       <r>   -14.7900     0.9548     0.4832 </r>
       <r>   -14.7800     1.0481     0.4936 </r>
       <r>   -14.7700     1.1384     0.5050 </r>
       <r>   -14.7600     1.2243     0.5173 </r>
       <r>   -14.7500     1.3042     0.5303 </r>
       <r>   -14.7400     1.3765     0.5441 </r>
       <r>   -14.7300     1.4399     0.5585 </r>
       <r>   -14.7200     1.4932     0.5734 </r>
       <r>   -14.7100     1.5351     0.5888 </r>
       <r>   -14.7000     1.5649     0.6044 </r>
       <r>   -14.6900     1.5820     0.6202 </r>
       <r>   -14.6800     1.5860     0.6361 </r>
       <r>   -14.6700     1.5768     0.6518 </r>
       <r>   -14.6600     1.5546     0.6674 </r>
       <r>   -14.6500     1.5198     0.6826 </r>
       <r>   -14.6400     1.4733     0.6973 </r>
       <r>   -14.6300     1.4159     0.7115 </r>
       <r>   -14.6200     1.3488     0.7250 </r>
       <r>   -14.6100     1.2733     0.7377 </r>
       <r>   -14.6000     1.1908     0.7496 </r>
       <r>   -14.5900     1.1030     0.7606 </r>
       <r>   -14.5800     1.0113     0.7708 </r>
       <r>   -14.5700     0.9173     0.7799 </r>
       <r>   -14.5600     0.8226     0.7882 </r>
       <r>   -14.5500     0.7286     0.7954 </r>
       <r>   -14.5400     0.6366     0.8018 </r>
       <r>   -14.5300     0.5479     0.8073 </r>
       <r>   -14.5200     0.4635     0.8119 </r>
       <r>   -14.5100     0.3843     0.8158 </r>
       <r>   -14.5000     0.3109     0.8189 </r>
       <r>   -14.4900     0.2438     0.8213 </r>
       <r>   -14.4800     0.1834     0.8231 </r>
       <r>   -14.4700     0.1298     0.8244 </r>
       <r>   -14.4600     0.0830     0.8253 </r>
       <r>   -14.4500     0.0428     0.8257 </r>
       <r>   -14.4400     0.0090     0.8258 </r>
       <r>   -14.4300    -0.0187     0.8256 </r>
       <r>   -14.4200    -0.0409     0.8252 </r>
       <r>   -14.4100    -0.0580     0.8246 </r>
       <r>   -14.4000    -0.0706     0.8239 </r>
       <r>   -14.3900    -0.0792     0.8231 </r>
       <r>   -14.3800    -0.0844     0.8223 </r>
       <r>   -14.3700    -0.0867     0.8214 </r>
       <r>   -14.3600    -0.0867     0.8205 </r>
       <r>   -14.3500    -0.0847     0.8197 </r>
       <r>   -14.3400    -0.0814     0.8189 </r>
       <r>   -14.3300    -0.0769     0.8181 </r>
       <r>   -14.3200    -0.0718     0.8174 </r>
       <r>   -14.3100    -0.0662     0.8167 </r>
       <r>   -14.3000    -0.0605     0.8161 </r>
       <r>   -14.2900    -0.0548     0.8156 </r>
       <r>   -14.2800    -0.0493     0.8151 </r>
       <r>   -14.2700    -0.0442     0.8146 </r>
       <r>   -14.2600    -0.0396     0.8142 </r>
       <r>   -14.2500    -0.0354     0.8139 </r>
       <r>   -14.2400    -0.0319     0.8136 </r>
       <r>   -14.2300    -0.0289     0.8133 </r>
       <r>   -14.2200    -0.0265     0.8130 </r>
       <r>   -14.2100    -0.0248     0.8128 </r>
       <r>   -14.2000    -0.0236     0.8125 </r>
       <r>   -14.1900    -0.0231     0.8123 </r>
       <r>   -14.1800    -0.0231     0.8121 </r>
       <r>   -14.1700    -0.0236     0.8118 </r>
       <r>   -14.1600    -0.0246     0.8116 </r>
       <r>   -14.1500    -0.0261     0.8113 </r>
       <r>   -14.1400    -0.0279     0.8110 </r>
       <r>   -14.1300    -0.0300     0.8107 </r>
       <r>   -14.1200    -0.0324     0.8104 </r>
       <r>   -14.1100    -0.0348     0.8101 </r>
       <r>   -14.1000    -0.0373     0.8097 </r>
       <r>   -14.0900    -0.0395     0.8093 </r>
       <r>   -14.0800    -0.0415     0.8089 </r>
       <r>   -14.0700    -0.0430     0.8085 </r>
       <r>   -14.0600    -0.0438     0.8080 </r>
       <r>   -14.0500    -0.0436     0.8076 </r>
       <r>   -14.0400    -0.0423     0.8072 </r>
       <r>   -14.0300    -0.0395     0.8068 </r>
       <r>   -14.0200    -0.0350     0.8064 </r>
       <r>   -14.0100    -0.0285     0.8061 </r>
       <r>   -14.0000    -0.0197     0.8059 </r>
       <r>   -13.9900    -0.0084     0.8059 </r>
       <r>   -13.9800     0.0057     0.8059 </r>
       <r>   -13.9700     0.0228     0.8061 </r>
       <r>   -13.9600     0.0432     0.8066 </r>
       <r>   -13.9500     0.0669     0.8072 </r>
       <r>   -13.9400     0.0939     0.8082 </r>
       <r>   -13.9300     0.1244     0.8094 </r>
       <r>   -13.9200     0.1582     0.8110 </r>
       <r>   -13.9100     0.1951     0.8130 </r>
       <r>   -13.9000     0.2350     0.8153 </r>
       <r>   -13.8900     0.2774     0.8181 </r>
       <r>   -13.8800     0.3219     0.8213 </r>
       <r>   -13.8700     0.3680     0.8250 </r>
       <r>   -13.8600     0.4150     0.8291 </r>
       <r>   -13.8500     0.4624     0.8338 </r>
       <r>   -13.8400     0.5093     0.8388 </r>
       <r>   -13.8300     0.5550     0.8444 </r>
       <r>   -13.8200     0.5988     0.8504 </r>
       <r>   -13.8100     0.6397     0.8568 </r>
       <r>   -13.8000     0.6772     0.8636 </r>
       <r>   -13.7900     0.7104     0.8707 </r>
       <r>   -13.7800     0.7387     0.8780 </r>
       <r>   -13.7700     0.7615     0.8857 </r>
       <r>   -13.7600     0.7784     0.8934 </r>
       <r>   -13.7500     0.7890     0.9013 </r>
       <r>   -13.7400     0.7931     0.9093 </r>
       <r>   -13.7300     0.7906     0.9172 </r>
       <r>   -13.7200     0.7815     0.9250 </r>
       <r>   -13.7100     0.7661     0.9326 </r>
       <r>   -13.7000     0.7447     0.9401 </r>
       <r>   -13.6900     0.7177     0.9473 </r>
       <r>   -13.6800     0.6856     0.9541 </r>
       <r>   -13.6700     0.6491     0.9606 </r>
       <r>   -13.6600     0.6089     0.9667 </r>
       <r>   -13.6500     0.5657     0.9724 </r>
       <r>   -13.6400     0.5204     0.9776 </r>
       <r>   -13.6300     0.4737     0.9823 </r>
       <r>   -13.6200     0.4264     0.9866 </r>
       <r>   -13.6100     0.3792     0.9904 </r>
       <r>   -13.6000     0.3328     0.9937 </r>
       <r>   -13.5900     0.2879     0.9966 </r>
       <r>   -13.5800     0.2450     0.9990 </r>
       <r>   -13.5700     0.2045     1.0011 </r>
       <r>   -13.5600     0.1668     1.0027 </r>
       <r>   -13.5500     0.1322     1.0041 </r>
       <r>   -13.5400     0.1010     1.0051 </r>
       <r>   -13.5300     0.0731     1.0058 </r>
       <r>   -13.5200     0.0486     1.0063 </r>
       <r>   -13.5100     0.0275     1.0066 </r>
       <r>   -13.5000     0.0096     1.0066 </r>
       <r>   -13.4900    -0.0052     1.0066 </r>
       <r>   -13.4800    -0.0172     1.0064 </r>
       <r>   -13.4700    -0.0265     1.0062 </r>
       <r>   -13.4600    -0.0335     1.0058 </r>
       <r>   -13.4500    -0.0384     1.0054 </r>
       <r>   -13.4400    -0.0415     1.0050 </r>
       <r>   -13.4300    -0.0431     1.0046 </r>
       <r>   -13.4200    -0.0433     1.0042 </r>
       <r>   -13.4100    -0.0426     1.0037 </r>
       <r>   -13.4000    -0.0411     1.0033 </r>
       <r>   -13.3900    -0.0389     1.0029 </r>
       <r>   -13.3800    -0.0364     1.0026 </r>
       <r>   -13.3700    -0.0336     1.0022 </r>
       <r>   -13.3600    -0.0306     1.0019 </r>
       <r>   -13.3500    -0.0276     1.0017 </r>
       <r>   -13.3400    -0.0246     1.0014 </r>
       <r>   -13.3300    -0.0218     1.0012 </r>
       <r>   -13.3200    -0.0192     1.0010 </r>
       <r>   -13.3100    -0.0167     1.0008 </r>
       <r>   -13.3000    -0.0145     1.0007 </r>
       <r>   -13.2900    -0.0125     1.0006 </r>
       <r>   -13.2800    -0.0107     1.0005 </r>
       <r>   -13.2700    -0.0092     1.0004 </r>
       <r>   -13.2600    -0.0079     1.0003 </r>
       <r>   -13.2500    -0.0069     1.0002 </r>
       <r>   -13.2400    -0.0060     1.0002 </r>
       <r>   -13.2300    -0.0054     1.0001 </r>
       <r>   -13.2200    -0.0050     1.0000 </r>
       <r>   -13.2100    -0.0048     1.0000 </r>
       <r>   -13.2000    -0.0048     1.0000 </r>
       <r>   -13.1900    -0.0050     0.9999 </r>
       <r>   -13.1800    -0.0054     0.9998 </r>
       <r>   -13.1700    -0.0060     0.9998 </r>
       <r>   -13.1600    -0.0069     0.9997 </r>
       <r>   -13.1500    -0.0079     0.9996 </r>
       <r>   -13.1400    -0.0092     0.9995 </r>
       <r>   -13.1300    -0.0107     0.9994 </r>
       <r>   -13.1200    -0.0125     0.9993 </r>
       <r>   -13.1100    -0.0145     0.9992 </r>
       <r>   -13.1000    -0.0167     0.9990 </r>
       <r>   -13.0900    -0.0191     0.9988 </r>
       <r>   -13.0800    -0.0218     0.9986 </r>
       <r>   -13.0700    -0.0246     0.9983 </r>
       <r>   -13.0600    -0.0276     0.9981 </r>
       <r>   -13.0500    -0.0306     0.9978 </r>
       <r>   -13.0400    -0.0335     0.9974 </r>
       <r>   -13.0300    -0.0364     0.9971 </r>
       <r>   -13.0200    -0.0389     0.9967 </r>
       <r>   -13.0100    -0.0411     0.9963 </r>
       <r>   -13.0000    -0.0426     0.9958 </r>
       <r>   -12.9900    -0.0433     0.9954 </r>
       <r>   -12.9800    -0.0431     0.9950 </r>
       <r>   -12.9700    -0.0415     0.9946 </r>
       <r>   -12.9600    -0.0384     0.9942 </r>
       <r>   -12.9500    -0.0335     0.9938 </r>
       <r>   -12.9400    -0.0266     0.9936 </r>
       <r>   -12.9300    -0.0172     0.9934 </r>
       <r>   -12.9200    -0.0053     0.9934 </r>
       <r>   -12.9100     0.0095     0.9934 </r>
       <r>   -12.9000     0.0274     0.9937 </r>
       <r>   -12.8900     0.0485     0.9942 </r>
       <r>   -12.8800     0.0729     0.9949 </r>
       <r>   -12.8700     0.1008     0.9959 </r>
       <r>   -12.8600     0.1320     0.9973 </r>
       <r>   -12.8500     0.1666     0.9989 </r>
       <r>   -12.8400     0.2042     1.0010 </r>
       <r>   -12.8300     0.2447     1.0034 </r>
       <r>   -12.8200     0.2876     1.0063 </r>
       <r>   -12.8100     0.3326     1.0096 </r>
       <r>   -12.8000     0.3789     1.0134 </r>
       <r>   -12.7900     0.4261     1.0177 </r>
       <r>   -12.7800     0.4734     1.0224 </r>
       <r>   -12.7700     0.5201     1.0276 </r>
       <r>   -12.7600     0.5655     1.0333 </r>
       <r>   -12.7500     0.6086     1.0393 </r>
       <r>   -12.7400     0.6489     1.0458 </r>
       <r>   -12.7300     0.6854     1.0527 </r>
       <r>   -12.7200     0.7175     1.0599 </r>
       <r>   -12.7100     0.7445     1.0673 </r>
       <r>   -12.7000     0.7660     1.0750 </r>
       <r>   -12.6900     0.7814     1.0828 </r>
       <r>   -12.6800     0.7905     1.0907 </r>
       <r>   -12.6700     0.7931     1.0986 </r>
       <r>   -12.6600     0.7890     1.1065 </r>
       <r>   -12.6500     0.7785     1.1143 </r>
       <r>   -12.6400     0.7616     1.1219 </r>
       <r>   -12.6300     0.7388     1.1293 </r>
       <r>   -12.6200     0.7106     1.1364 </r>
       <r>   -12.6100     0.6774     1.1432 </r>
       <r>   -12.6000     0.6400     1.1496 </r>
       <r>   -12.5900     0.5990     1.1556 </r>
       <r>   -12.5800     0.5553     1.1611 </r>
       <r>   -12.5700     0.5096     1.1662 </r>
       <r>   -12.5600     0.4626     1.1708 </r>
       <r>   -12.5500     0.4153     1.1750 </r>
       <r>   -12.5400     0.3682     1.1787 </r>
       <r>   -12.5300     0.3221     1.1819 </r>
       <r>   -12.5200     0.2776     1.1847 </r>
       <r>   -12.5100     0.2352     1.1870 </r>
       <r>   -12.5000     0.1954     1.1890 </r>
       <r>   -12.4900     0.1584     1.1906 </r>
       <r>   -12.4800     0.1246     1.1918 </r>
       <r>   -12.4700     0.0941     1.1928 </r>
       <r>   -12.4600     0.0670     1.1934 </r>
       <r>   -12.4500     0.0433     1.1939 </r>
       <r>   -12.4400     0.0230     1.1941 </r>
       <r>   -12.4300     0.0058     1.1941 </r>
       <r>   -12.4200    -0.0083     1.1941 </r>
       <r>   -12.4100    -0.0196     1.1939 </r>
       <r>   -12.4000    -0.0284     1.1936 </r>
       <r>   -12.3900    -0.0348     1.1932 </r>
       <r>   -12.3800    -0.0393     1.1928 </r>
       <r>   -12.3700    -0.0420     1.1924 </r>
       <r>   -12.3600    -0.0432     1.1920 </r>
       <r>   -12.3500    -0.0433     1.1916 </r>
       <r>   -12.3400    -0.0423     1.1911 </r>
       <r>   -12.3300    -0.0406     1.1907 </r>
       <r>   -12.3200    -0.0384     1.1903 </r>
       <r>   -12.3100    -0.0357     1.1900 </r>
       <r>   -12.3000    -0.0328     1.1897 </r>
       <r>   -12.2900    -0.0298     1.1894 </r>
       <r>   -12.2800    -0.0268     1.1891 </r>
       <r>   -12.2700    -0.0239     1.1889 </r>
       <r>   -12.2600    -0.0211     1.1886 </r>
       <r>   -12.2500    -0.0184     1.1885 </r>
       <r>   -12.2400    -0.0160     1.1883 </r>
       <r>   -12.2300    -0.0137     1.1882 </r>
       <r>   -12.2200    -0.0117     1.1880 </r>
       <r>   -12.2100    -0.0099     1.1879 </r>
       <r>   -12.2000    -0.0083     1.1879 </r>
       <r>   -12.1900    -0.0070     1.1878 </r>
       <r>   -12.1800    -0.0058     1.1877 </r>
       <r>   -12.1700    -0.0047     1.1877 </r>
       <r>   -12.1600    -0.0039     1.1877 </r>
       <r>   -12.1500    -0.0032     1.1876 </r>
       <r>   -12.1400    -0.0025     1.1876 </r>
       <r>   -12.1300    -0.0020     1.1876 </r>
       <r>   -12.1200    -0.0016     1.1876 </r>
       <r>   -12.1100    -0.0013     1.1875 </r>
       <r>   -12.1000    -0.0010     1.1875 </r>
       <r>   -12.0900    -0.0008     1.1875 </r>
       <r>   -12.0800    -0.0006     1.1875 </r>
       <r>   -12.0700    -0.0005     1.1875 </r>
       <r>   -12.0600    -0.0004     1.1875 </r>
       <r>   -12.0500    -0.0003     1.1875 </r>
       <r>   -12.0400    -0.0002     1.1875 </r>
       <r>   -12.0300    -0.0002     1.1875 </r>
       <r>   -12.0200    -0.0001     1.1875 </r>
       <r>   -12.0100    -0.0001     1.1875 </r>
       <r>   -12.0000    -0.0001     1.1875 </r>
       <r>   -11.9900    -0.0000     1.1875 </r>
       <r>   -11.9800    -0.0000     1.1875 </r>
       <r>   -11.9700    -0.0000     1.1875 </r>
       <r>   -11.9600    -0.0000     1.1875 </r>
       <r>   -11.9500    -0.0000     1.1875 </r>
       <r>   -11.9400    -0.0000     1.1875 </r>
       <r>   -11.9300    -0.0000     1.1875 </r>
       <r>   -11.9200    -0.0000     1.1875 </r>
       <r>   -11.9100    -0.0000     1.1875 </r>
       <r>   -11.9000    -0.0000     1.1875 </r>
       <r>   -11.8900    -0.0000     1.1875 </r>
       <r>   -11.8800    -0.0000     1.1875 </r>
       <r>   -11.8700    -0.0000     1.1875 </r>
       <r>   -11.8600    -0.0000     1.1875 </r>
       <r>   -11.8500    -0.0000     1.1875 </r>
       <r>   -11.8400    -0.0000     1.1875 </r>
       <r>   -11.8300    -0.0000     1.1875 </r>
       <r>   -11.8200    -0.0000     1.1875 </r>
       <r>   -11.8100    -0.0000     1.1875 </r>
       <r>   -11.8000    -0.0000     1.1875 </r>
       <r>   -11.7900    -0.0000     1.1875 </r>
       <r>   -11.7800    -0.0000     1.1875 </r>
       <r>   -11.7700    -0.0000     1.1875 </r>
       <r>   -11.7600    -0.0000     1.1875 </r>
       <r>   -11.7500    -0.0000     1.1875 </r>
       <r>   -11.7400    -0.0000     1.1875 </r>
       <r>   -11.7300    -0.0000     1.1875 </r>
       <r>   -11.7200    -0.0000     1.1875 </r>
       <r>   -11.7100    -0.0000     1.1875 </r>
       <r>   -11.7000    -0.0000     1.1875 </r>
       <r>   -11.6900    -0.0000     1.1875 </r>
       <r>   -11.6800    -0.0000     1.1875 </r>
       <r>   -11.6700    -0.0000     1.1875 </r>
       <r>   -11.6600    -0.0000     1.1875 </r>
       <r>   -11.6500    -0.0000     1.1875 </r>
       <r>   -11.6400    -0.0000     1.1875 </r>
       <r>   -11.6300    -0.0000     1.1875 </r>
       <r>   -11.6200    -0.0000     1.1875 </r>
       <r>   -11.6100    -0.0000     1.1875 </r>
       <r>   -11.6000    -0.0000     1.1875 </r>
       <r>   -11.5900    -0.0000     1.1875 </r>
       <r>   -11.5800    -0.0000     1.1875 </r>
       <r>   -11.5700    -0.0000     1.1875 </r>
       <r>   -11.5600    -0.0000     1.1875 </r>
       <r>   -11.5500    -0.0000     1.1875 </r>
       <r>   -11.5400    -0.0000     1.1875 </r>
       <r>   -11.5300    -0.0000     1.1875 </r>
       <r>   -11.5200    -0.0000     1.1875 </r>
       <r>   -11.5100    -0.0000     1.1875 </r>
       <r>   -11.5000    -0.0000     1.1875 </r>
       <r>   -11.4900    -0.0000     1.1875 </r>
       <r>   -11.4800    -0.0000     1.1875 </r>
       <r>   -11.4700    -0.0000     1.1875 </r>
       <r>   -11.4600    -0.0000     1.1875 </r>
       <r>   -11.4500    -0.0000     1.1875 </r>
       <r>   -11.4400    -0.0000     1.1875 </r>
       <r>   -11.4300    -0.0000     1.1875 </r>
       <r>   -11.4200    -0.0000     1.1875 </r>
       <r>   -11.4100    -0.0000     1.1875 </r>
       <r>   -11.4000    -0.0000     1.1875 </r>
       <r>   -11.3900    -0.0000     1.1875 </r>
       <r>   -11.3800    -0.0000     1.1875 </r>
       <r>   -11.3700    -0.0000     1.1875 </r>
       <r>   -11.3600    -0.0000     1.1875 </r>
       <r>   -11.3500    -0.0000     1.1875 </r>
       <r>   -11.3400    -0.0000     1.1875 </r>
       <r>   -11.3300    -0.0000     1.1875 </r>
       <r>   -11.3200    -0.0000     1.1875 </r>
       <r>   -11.3100    -0.0000     1.1875 </r>
       <r>   -11.3000    -0.0000     1.1875 </r>
       <r>   -11.2900    -0.0000     1.1875 </r>
       <r>   -11.2800    -0.0000     1.1875 </r>
       <r>   -11.2700    -0.0000     1.1875 </r>
       <r>   -11.2600    -0.0000     1.1875 </r>
       <r>   -11.2500    -0.0000     1.1875 </r>
       <r>   -11.2400    -0.0000     1.1875 </r>
       <r>   -11.2300    -0.0000     1.1875 </r>
       <r>   -11.2200    -0.0000     1.1875 </r>
       <r>   -11.2100    -0.0000     1.1875 </r>
       <r>   -11.2000    -0.0000     1.1875 </r>
       <r>   -11.1900    -0.0000     1.1875 </r>
       <r>   -11.1800    -0.0000     1.1875 </r>
       <r>   -11.1700    -0.0000     1.1875 </r>
       <r>   -11.1600    -0.0000     1.1875 </r>
       <r>   -11.1500    -0.0000     1.1875 </r>
       <r>   -11.1400    -0.0000     1.1875 </r>
       <r>   -11.1300    -0.0000     1.1875 </r>
       <r>   -11.1200    -0.0000     1.1875 </r>
       <r>   -11.1100    -0.0000     1.1875 </r>
       <r>   -11.1000    -0.0000     1.1875 </r>
       <r>   -11.0900    -0.0000     1.1875 </r>
       <r>   -11.0800    -0.0000     1.1875 </r>
       <r>   -11.0700    -0.0000     1.1875 </r>
       <r>   -11.0600    -0.0000     1.1875 </r>
       <r>   -11.0500    -0.0000     1.1875 </r>
       <r>   -11.0400    -0.0000     1.1875 </r>
       <r>   -11.0300    -0.0000     1.1875 </r>
       <r>   -11.0200    -0.0000     1.1875 </r>
       <r>   -11.0100    -0.0000     1.1875 </r>
       <r>   -11.0000    -0.0000     1.1875 </r>
       <r>   -10.9900    -0.0000     1.1875 </r>
       <r>   -10.9800    -0.0000     1.1875 </r>
       <r>   -10.9700    -0.0000     1.1875 </r>
       <r>   -10.9600    -0.0000     1.1875 </r>
       <r>   -10.9500    -0.0000     1.1875 </r>
       <r>   -10.9400    -0.0000     1.1875 </r>
       <r>   -10.9300    -0.0000     1.1875 </r>
       <r>   -10.9200    -0.0000     1.1875 </r>
       <r>   -10.9100    -0.0000     1.1875 </r>
       <r>   -10.9000    -0.0000     1.1875 </r>
       <r>   -10.8900    -0.0000     1.1875 </r>
       <r>   -10.8800    -0.0000     1.1875 </r>
       <r>   -10.8700    -0.0000     1.1875 </r>
       <r>   -10.8600    -0.0000     1.1875 </r>
       <r>   -10.8500    -0.0000     1.1875 </r>
       <r>   -10.8400    -0.0000     1.1875 </r>
       <r>   -10.8300    -0.0000     1.1875 </r>
       <r>   -10.8200    -0.0000     1.1875 </r>
       <r>   -10.8100    -0.0000     1.1875 </r>
       <r>   -10.8000    -0.0000     1.1875 </r>
       <r>   -10.7900    -0.0000     1.1875 </r>
       <r>   -10.7800    -0.0000     1.1875 </r>
       <r>   -10.7700    -0.0000     1.1875 </r>
       <r>   -10.7600    -0.0000     1.1875 </r>
       <r>   -10.7500    -0.0000     1.1875 </r>
       <r>   -10.7400    -0.0000     1.1875 </r>
       <r>   -10.7300    -0.0000     1.1875 </r>
       <r>   -10.7200    -0.0000     1.1875 </r>
       <r>   -10.7100    -0.0000     1.1875 </r>
       <r>   -10.7000    -0.0001     1.1875 </r>
       <r>   -10.6900    -0.0001     1.1875 </r>
       <r>   -10.6800    -0.0001     1.1875 </r>
       <r>   -10.6700    -0.0001     1.1875 </r>
       <r>   -10.6600    -0.0002     1.1875 </r>
       <r>   -10.6500    -0.0002     1.1875 </r>
       <r>   -10.6400    -0.0003     1.1875 </r>
       <r>   -10.6300    -0.0004     1.1875 </r>
       <r>   -10.6200    -0.0005     1.1875 </r>
       <r>   -10.6100    -0.0007     1.1875 </r>
       <r>   -10.6000    -0.0009     1.1875 </r>
       <r>   -10.5900    -0.0012     1.1875 </r>
       <r>   -10.5800    -0.0015     1.1874 </r>
       <r>   -10.5700    -0.0020     1.1874 </r>
       <r>   -10.5600    -0.0025     1.1874 </r>
       <r>   -10.5500    -0.0032     1.1874 </r>
       <r>   -10.5400    -0.0040     1.1873 </r>
       <r>   -10.5300    -0.0050     1.1873 </r>
       <r>   -10.5200    -0.0062     1.1872 </r>
       <r>   -10.5100    -0.0076     1.1871 </r>
       <r>   -10.5000    -0.0093     1.1870 </r>
       <r>   -10.4900    -0.0113     1.1869 </r>
       <r>   -10.4800    -0.0136     1.1868 </r>
       <r>   -10.4700    -0.0163     1.1866 </r>
       <r>   -10.4600    -0.0195     1.1864 </r>
       <r>   -10.4500    -0.0230     1.1862 </r>
       <r>   -10.4400    -0.0270     1.1859 </r>
       <r>   -10.4300    -0.0314     1.1856 </r>
       <r>   -10.4200    -0.0363     1.1853 </r>
       <r>   -10.4100    -0.0415     1.1848 </r>
       <r>   -10.4000    -0.0471     1.1844 </r>
       <r>   -10.3900    -0.0530     1.1838 </r>
       <r>   -10.3800    -0.0590     1.1832 </r>
       <r>   -10.3700    -0.0650     1.1826 </r>
       <r>   -10.3600    -0.0708     1.1819 </r>
       <r>   -10.3500    -0.0761     1.1811 </r>
       <r>   -10.3400    -0.0808     1.1803 </r>
       <r>   -10.3300    -0.0843     1.1795 </r>
       <r>   -10.3200    -0.0864     1.1786 </r>
       <r>   -10.3100    -0.0866     1.1777 </r>
       <r>   -10.3000    -0.0844     1.1769 </r>
       <r>   -10.2900    -0.0793     1.1761 </r>
       <r>   -10.2800    -0.0709     1.1754 </r>
       <r>   -10.2700    -0.0584     1.1748 </r>
       <r>   -10.2600    -0.0415     1.1744 </r>
       <r>   -10.2500    -0.0194     1.1742 </r>
       <r>   -10.2400     0.0081     1.1743 </r>
       <r>   -10.2300     0.0417     1.1747 </r>
       <r>   -10.2200     0.0817     1.1755 </r>
       <r>   -10.2100     0.1283     1.1768 </r>
       <r>   -10.2000     0.1817     1.1786 </r>
       <r>   -10.1900     0.2419     1.1810 </r>
       <r>   -10.1800     0.3087     1.1841 </r>
       <r>   -10.1700     0.3819     1.1880 </r>
       <r>   -10.1600     0.4610     1.1926 </r>
       <r>   -10.1500     0.5453     1.1980 </r>
       <r>   -10.1400     0.6339     1.2044 </r>
       <r>   -10.1300     0.7257     1.2116 </r>
       <r>   -10.1200     0.8197     1.2198 </r>
       <r>   -10.1100     0.9144     1.2290 </r>
       <r>   -10.1000     1.0084     1.2390 </r>
       <r>   -10.0900     1.1002     1.2500 </r>
       <r>   -10.0800     1.1882     1.2619 </r>
       <r>   -10.0700     1.2709     1.2746 </r>
       <r>   -10.0600     1.3466     1.2881 </r>
       <r>   -10.0500     1.4140     1.3022 </r>
       <r>   -10.0400     1.4717     1.3169 </r>
       <r>   -10.0300     1.5186     1.3321 </r>
       <r>   -10.0200     1.5537     1.3477 </r>
       <r>   -10.0100     1.5763     1.3634 </r>
       <r>   -10.0000     1.5859     1.3793 </r>
       <r>    -9.9900     1.5823     1.3951 </r>
       <r>    -9.9800     1.5656     1.4108 </r>
       <r>    -9.9700     1.5362     1.4261 </r>
       <r>    -9.9600     1.4946     1.4411 </r>
       <r>    -9.9500     1.4417     1.4555 </r>
       <r>    -9.9400     1.3786     1.4693 </r>
       <r>    -9.9300     1.3065     1.4824 </r>
       <r>    -9.9200     1.2269     1.4946 </r>
       <r>    -9.9100     1.1411     1.5060 </r>
       <r>    -9.9000     1.0509     1.5165 </r>
       <r>    -9.8900     0.9577     1.5261 </r>
       <r>    -9.8800     0.8631     1.5347 </r>
       <r>    -9.8700     0.7686     1.5424 </r>
       <r>    -9.8600     0.6757     1.5492 </r>
       <r>    -9.8500     0.5854     1.5550 </r>
       <r>    -9.8400     0.4991     1.5600 </r>
       <r>    -9.8300     0.4175     1.5642 </r>
       <r>    -9.8200     0.3415     1.5676 </r>
       <r>    -9.8100     0.2717     1.5703 </r>
       <r>    -9.8000     0.2084     1.5724 </r>
       <r>    -9.7900     0.1519     1.5739 </r>
       <r>    -9.7800     0.1022     1.5750 </r>
       <r>    -9.7700     0.0592     1.5756 </r>
       <r>    -9.7600     0.0228     1.5758 </r>
       <r>    -9.7500    -0.0075     1.5757 </r>
       <r>    -9.7400    -0.0320     1.5754 </r>
       <r>    -9.7300    -0.0512     1.5749 </r>
       <r>    -9.7200    -0.0657     1.5742 </r>
       <r>    -9.7100    -0.0759     1.5735 </r>
       <r>    -9.7000    -0.0825     1.5726 </r>
       <r>    -9.6900    -0.0859     1.5718 </r>
       <r>    -9.6800    -0.0867     1.5709 </r>
       <r>    -9.6700    -0.0855     1.5701 </r>
       <r>    -9.6600    -0.0825     1.5692 </r>
       <r>    -9.6500    -0.0784     1.5685 </r>
       <r>    -9.6400    -0.0733     1.5677 </r>
       <r>    -9.6300    -0.0677     1.5670 </r>
       <r>    -9.6200    -0.0618     1.5664 </r>
       <r>    -9.6100    -0.0557     1.5659 </r>
       <r>    -9.6000    -0.0498     1.5654 </r>
       <r>    -9.5900    -0.0441     1.5649 </r>
       <r>    -9.5800    -0.0386     1.5645 </r>
       <r>    -9.5700    -0.0336     1.5642 </r>
       <r>    -9.5600    -0.0290     1.5639 </r>
       <r>    -9.5500    -0.0248     1.5637 </r>
       <r>    -9.5400    -0.0210     1.5635 </r>
       <r>    -9.5300    -0.0177     1.5633 </r>
       <r>    -9.5200    -0.0148     1.5631 </r>
       <r>    -9.5100    -0.0123     1.5630 </r>
       <r>    -9.5000    -0.0102     1.5629 </r>
       <r>    -9.4900    -0.0083     1.5628 </r>
       <r>    -9.4800    -0.0068     1.5628 </r>
       <r>    -9.4700    -0.0055     1.5627 </r>
       <r>    -9.4600    -0.0044     1.5627 </r>
       <r>    -9.4500    -0.0035     1.5626 </r>
       <r>    -9.4400    -0.0028     1.5626 </r>
       <r>    -9.4300    -0.0022     1.5626 </r>
       <r>    -9.4200    -0.0017     1.5626 </r>
       <r>    -9.4100    -0.0013     1.5625 </r>
       <r>    -9.4000    -0.0010     1.5625 </r>
       <r>    -9.3900    -0.0008     1.5625 </r>
       <r>    -9.3800    -0.0006     1.5625 </r>
       <r>    -9.3700    -0.0005     1.5625 </r>
       <r>    -9.3600    -0.0004     1.5625 </r>
       <r>    -9.3500    -0.0003     1.5625 </r>
       <r>    -9.3400    -0.0002     1.5625 </r>
       <r>    -9.3300    -0.0001     1.5625 </r>
       <r>    -9.3200    -0.0001     1.5625 </r>
       <r>    -9.3100    -0.0001     1.5625 </r>
       <r>    -9.3000    -0.0001     1.5625 </r>
       <r>    -9.2900    -0.0000     1.5625 </r>
       <r>    -9.2800    -0.0000     1.5625 </r>
       <r>    -9.2700    -0.0000     1.5625 </r>
       <r>    -9.2600    -0.0000     1.5625 </r>
       <r>    -9.2500    -0.0000     1.5625 </r>
       <r>    -9.2400    -0.0000     1.5625 </r>
       <r>    -9.2300    -0.0000     1.5625 </r>
       <r>    -9.2200    -0.0000     1.5625 </r>
       <r>    -9.2100    -0.0000     1.5625 </r>
       <r>    -9.2000    -0.0000     1.5625 </r>
       <r>    -9.1900    -0.0000     1.5625 </r>
       <r>    -9.1800    -0.0000     1.5625 </r>
       <r>    -9.1700    -0.0000     1.5625 </r>
       <r>    -9.1600    -0.0000     1.5625 </r>
       <r>    -9.1500    -0.0000     1.5625 </r>
       <r>    -9.1400    -0.0000     1.5625 </r>
       <r>    -9.1300    -0.0000     1.5625 </r>
       <r>    -9.1200    -0.0000     1.5625 </r>
       <r>    -9.1100    -0.0000     1.5625 </r>
       <r>    -9.1000    -0.0000     1.5625 </r>
       <r>    -9.0900    -0.0001     1.5625 </r>
       <r>    -9.0800    -0.0001     1.5625 </r>
       <r>    -9.0700    -0.0001     1.5625 </r>
       <r>    -9.0600    -0.0002     1.5625 </r>
       <r>    -9.0500    -0.0002     1.5625 </r>
       <r>    -9.0400    -0.0003     1.5625 </r>
       <r>    -9.0300    -0.0004     1.5625 </r>
       <r>    -9.0200    -0.0005     1.5625 </r>
       <r>    -9.0100    -0.0007     1.5625 </r>
       <r>    -9.0000    -0.0009     1.5625 </r>
       <r>    -8.9900    -0.0011     1.5625 </r>
       <r>    -8.9800    -0.0015     1.5624 </r>
       <r>    -8.9700    -0.0019     1.5624 </r>
       <r>    -8.9600    -0.0024     1.5624 </r>
       <r>    -8.9500    -0.0030     1.5624 </r>
       <r>    -8.9400    -0.0038     1.5623 </r>
       <r>    -8.9300    -0.0048     1.5623 </r>
       <r>    -8.9200    -0.0059     1.5622 </r>
       <r>    -8.9100    -0.0073     1.5621 </r>
       <r>    -8.9000    -0.0089     1.5621 </r>
       <r>    -8.8900    -0.0109     1.5619 </r>
       <r>    -8.8800    -0.0131     1.5618 </r>
       <r>    -8.8700    -0.0158     1.5617 </r>
       <r>    -8.8600    -0.0188     1.5615 </r>
       <r>    -8.8500    -0.0223     1.5612 </r>
       <r>    -8.8400    -0.0262     1.5610 </r>
       <r>    -8.8300    -0.0305     1.5607 </r>
       <r>    -8.8200    -0.0353     1.5603 </r>
       <r>    -8.8100    -0.0405     1.5599 </r>
       <r>    -8.8000    -0.0460     1.5595 </r>
       <r>    -8.7900    -0.0518     1.5589 </r>
       <r>    -8.7800    -0.0578     1.5584 </r>
       <r>    -8.7700    -0.0638     1.5577 </r>
       <r>    -8.7600    -0.0697     1.5570 </r>
       <r>    -8.7500    -0.0751     1.5563 </r>
       <r>    -8.7400    -0.0799     1.5555 </r>
       <r>    -8.7300    -0.0837     1.5546 </r>
       <r>    -8.7200    -0.0861     1.5538 </r>
       <r>    -8.7100    -0.0867     1.5529 </r>
       <r>    -8.7000    -0.0850     1.5521 </r>
       <r>    -8.6900    -0.0806     1.5513 </r>
       <r>    -8.6800    -0.0728     1.5505 </r>
       <r>    -8.6700    -0.0612     1.5499 </r>
       <r>    -8.6600    -0.0452     1.5495 </r>
       <r>    -8.6500    -0.0242     1.5492 </r>
       <r>    -8.6400     0.0023     1.5493 </r>
       <r>    -8.6300     0.0346     1.5496 </r>
       <r>    -8.6200     0.0733     1.5503 </r>
       <r>    -8.6100     0.1186     1.5515 </r>
       <r>    -8.6000     0.1707     1.5532 </r>
       <r>    -8.5900     0.2295     1.5555 </r>
       <r>    -8.5800     0.2951     1.5585 </r>
       <r>    -8.5700     0.3671     1.5621 </r>
       <r>    -8.5600     0.4451     1.5666 </r>
       <r>    -8.5500     0.5284     1.5719 </r>
       <r>    -8.5400     0.6162     1.5780 </r>
       <r>    -8.5300     0.7075     1.5851 </r>
       <r>    -8.5200     0.8012     1.5931 </r>
       <r>    -8.5100     0.8958     1.6021 </r>
       <r>    -8.5000     0.9901     1.6120 </r>
       <r>    -8.4900     1.0825     1.6228 </r>
       <r>    -8.4800     1.1713     1.6345 </r>
       <r>    -8.4700     1.2552     1.6471 </r>
       <r>    -8.4600     1.3324     1.6604 </r>
       <r>    -8.4500     1.4015     1.6744 </r>
       <r>    -8.4400     1.4612     1.6890 </r>
       <r>    -8.4300     1.5103     1.7041 </r>
       <r>    -8.4200     1.5478     1.7196 </r>
       <r>    -8.4100     1.5729     1.7353 </r>
       <r>    -8.4000     1.5850     1.7512 </r>
       <r>    -8.3900     1.5841     1.7670 </r>
       <r>    -8.3800     1.5699     1.7827 </r>
       <r>    -8.3700     1.5429     1.7982 </r>
       <r>    -8.3600     1.5037     1.8132 </r>
       <r>    -8.3500     1.4529     1.8277 </r>
       <r>    -8.3400     1.3917     1.8416 </r>
       <r>    -8.3300     1.3213     1.8549 </r>
       <r>    -8.3200     1.2430     1.8673 </r>
       <r>    -8.3100     1.1583     1.8789 </r>
       <r>    -8.3000     1.0689     1.8896 </r>
       <r>    -8.2900     0.9761     1.8993 </r>
       <r>    -8.2800     0.8817     1.9081 </r>
       <r>    -8.2700     0.7871     1.9160 </r>
       <r>    -8.2600     0.6937     1.9229 </r>
       <r>    -8.2500     0.6028     1.9290 </r>
       <r>    -8.2400     0.5156     1.9341 </r>
       <r>    -8.2300     0.4331     1.9385 </r>
       <r>    -8.2200     0.3560     1.9420 </r>
       <r>    -8.2100     0.2849     1.9449 </r>
       <r>    -8.2000     0.2203     1.9471 </r>
       <r>    -8.1900     0.1624     1.9487 </r>
       <r>    -8.1800     0.1114     1.9498 </r>
       <r>    -8.1700     0.0671     1.9505 </r>
       <r>    -8.1600     0.0294     1.9508 </r>
       <r>    -8.1500    -0.0020     1.9508 </r>
       <r>    -8.1400    -0.0276     1.9505 </r>
       <r>    -8.1300    -0.0479     1.9500 </r>
       <r>    -8.1200    -0.0632     1.9494 </r>
       <r>    -8.1100    -0.0742     1.9486 </r>
       <r>    -8.1000    -0.0814     1.9478 </r>
       <r>    -8.0900    -0.0854     1.9470 </r>
       <r>    -8.0800    -0.0867     1.9461 </r>
       <r>    -8.0700    -0.0858     1.9452 </r>
       <r>    -8.0600    -0.0832     1.9444 </r>
       <r>    -8.0500    -0.0793     1.9436 </r>
       <r>    -8.0400    -0.0744     1.9429 </r>
       <r>    -8.0300    -0.0688     1.9422 </r>
       <r>    -8.0200    -0.0629     1.9415 </r>
       <r>    -8.0100    -0.0569     1.9410 </r>
       <r>    -8.0000    -0.0509     1.9405 </r>
       <r>    -7.9900    -0.0452     1.9400 </r>
       <r>    -7.9800    -0.0397     1.9396 </r>
       <r>    -7.9700    -0.0345     1.9393 </r>
       <r>    -7.9600    -0.0298     1.9390 </r>
       <r>    -7.9500    -0.0256     1.9387 </r>
       <r>    -7.9400    -0.0217     1.9385 </r>
       <r>    -7.9300    -0.0183     1.9383 </r>
       <r>    -7.9200    -0.0154     1.9382 </r>
       <r>    -7.9100    -0.0128     1.9380 </r>
       <r>    -7.9000    -0.0106     1.9379 </r>
       <r>    -7.8900    -0.0087     1.9378 </r>
       <r>    -7.8800    -0.0071     1.9378 </r>
       <r>    -7.8700    -0.0057     1.9377 </r>
       <r>    -7.8600    -0.0046     1.9377 </r>
       <r>    -7.8500    -0.0037     1.9376 </r>
       <r>    -7.8400    -0.0029     1.9376 </r>
       <r>    -7.8300    -0.0023     1.9376 </r>
       <r>    -7.8200    -0.0018     1.9376 </r>
       <r>    -7.8100    -0.0014     1.9375 </r>
       <r>    -7.8000    -0.0011     1.9375 </r>
       <r>    -7.7900    -0.0008     1.9375 </r>
       <r>    -7.7800    -0.0007     1.9375 </r>
       <r>    -7.7700    -0.0005     1.9375 </r>
       <r>    -7.7600    -0.0004     1.9375 </r>
       <r>    -7.7500    -0.0003     1.9375 </r>
       <r>    -7.7400    -0.0002     1.9375 </r>
       <r>    -7.7300    -0.0002     1.9375 </r>
       <r>    -7.7200    -0.0001     1.9375 </r>
       <r>    -7.7100    -0.0001     1.9375 </r>
       <r>    -7.7000    -0.0001     1.9375 </r>
       <r>    -7.6900    -0.0001     1.9375 </r>
       <r>    -7.6800    -0.0001     1.9375 </r>
       <r>    -7.6700    -0.0001     1.9375 </r>
       <r>    -7.6600    -0.0002     1.9375 </r>
       <r>    -7.6500    -0.0002     1.9375 </r>
       <r>    -7.6400    -0.0002     1.9375 </r>
       <r>    -7.6300    -0.0003     1.9375 </r>
       <r>    -7.6200    -0.0004     1.9375 </r>
       <r>    -7.6100    -0.0005     1.9375 </r>
       <r>    -7.6000    -0.0006     1.9375 </r>
       <r>    -7.5900    -0.0008     1.9375 </r>
       <r>    -7.5800    -0.0010     1.9375 </r>
       <r>    -7.5700    -0.0013     1.9374 </r>
       <r>    -7.5600    -0.0016     1.9374 </r>
       <r>    -7.5500    -0.0019     1.9374 </r>
       <r>    -7.5400    -0.0024     1.9374 </r>
       <r>    -7.5300    -0.0029     1.9374 </r>
       <r>    -7.5200    -0.0035     1.9373 </r>
       <r>    -7.5100    -0.0042     1.9373 </r>
       <r>    -7.5000    -0.0050     1.9372 </r>
       <r>    -7.4900    -0.0060     1.9372 </r>
       <r>    -7.4800    -0.0071     1.9371 </r>
       <r>    -7.4700    -0.0084     1.9370 </r>
       <r>    -7.4600    -0.0098     1.9369 </r>
       <r>    -7.4500    -0.0114     1.9368 </r>
       <r>    -7.4400    -0.0132     1.9367 </r>
       <r>    -7.4300    -0.0152     1.9365 </r>
       <r>    -7.4200    -0.0173     1.9363 </r>
       <r>    -7.4100    -0.0197     1.9361 </r>
       <r>    -7.4000    -0.0222     1.9359 </r>
       <r>    -7.3900    -0.0249     1.9357 </r>
       <r>    -7.3800    -0.0277     1.9354 </r>
       <r>    -7.3700    -0.0306     1.9351 </r>
       <r>    -7.3600    -0.0335     1.9348 </r>
       <r>    -7.3500    -0.0364     1.9344 </r>
       <r>    -7.3400    -0.0393     1.9340 </r>
       <r>    -7.3300    -0.0420     1.9336 </r>
       <r>    -7.3200    -0.0444     1.9331 </r>
       <r>    -7.3100    -0.0464     1.9327 </r>
       <r>    -7.3000    -0.0479     1.9322 </r>
       <r>    -7.2900    -0.0487     1.9317 </r>
       <r>    -7.2800    -0.0486     1.9312 </r>
       <r>    -7.2700    -0.0474     1.9307 </r>
       <r>    -7.2600    -0.0449     1.9303 </r>
       <r>    -7.2500    -0.0409     1.9299 </r>
       <r>    -7.2400    -0.0350     1.9295 </r>
       <r>    -7.2300    -0.0270     1.9293 </r>
       <r>    -7.2200    -0.0165     1.9291 </r>
       <r>    -7.2100    -0.0033     1.9291 </r>
       <r>    -7.2000     0.0131     1.9292 </r>
       <r>    -7.1900     0.0330     1.9295 </r>
       <r>    -7.1800     0.0567     1.9301 </r>
       <r>    -7.1700     0.0845     1.9309 </r>
       <r>    -7.1600     0.1169     1.9321 </r>
       <r>    -7.1500     0.1540     1.9337 </r>
       <r>    -7.1400     0.1962     1.9356 </r>
       <r>    -7.1300     0.2436     1.9380 </r>
       <r>    -7.1200     0.2963     1.9410 </r>
       <r>    -7.1100     0.3544     1.9446 </r>
       <r>    -7.1000     0.4177     1.9487 </r>
       <r>    -7.0900     0.4862     1.9536 </r>
       <r>    -7.0800     0.5595     1.9592 </r>
       <r>    -7.0700     0.6371     1.9656 </r>
       <r>    -7.0600     0.7185     1.9727 </r>
       <r>    -7.0500     0.8029     1.9808 </r>
       <r>    -7.0400     0.8896     1.9897 </r>
       <r>    -7.0300     0.9775     1.9994 </r>
       <r>    -7.0200     1.0654     2.0101 </r>
       <r>    -7.0100     1.1523     2.0216 </r>
       <r>    -7.0000     1.2368     2.0340 </r>
       <r>    -6.9900     1.3175     2.0472 </r>
       <r>    -6.9800     1.3933     2.0611 </r>
       <r>    -6.9700     1.4626     2.0757 </r>
       <r>    -6.9600     1.5242     2.0910 </r>
       <r>    -6.9500     1.5770     2.1067 </r>
       <r>    -6.9400     1.6198     2.1229 </r>
       <r>    -6.9300     1.6518     2.1395 </r>
       <r>    -6.9200     1.6722     2.1562 </r>
       <r>    -6.9100     1.6804     2.1730 </r>
       <r>    -6.9000     1.6763     2.1897 </r>
       <r>    -6.8900     1.6597     2.2063 </r>
       <r>    -6.8800     1.6309     2.2226 </r>
       <r>    -6.8700     1.5902     2.2385 </r>
       <r>    -6.8600     1.5384     2.2539 </r>
       <r>    -6.8500     1.4763     2.2687 </r>
       <r>    -6.8400     1.4051     2.2827 </r>
       <r>    -6.8300     1.3259     2.2960 </r>
       <r>    -6.8200     1.2401     2.3084 </r>
       <r>    -6.8100     1.1492     2.3199 </r>
       <r>    -6.8000     1.0547     2.3304 </r>
       <r>    -6.7900     0.9580     2.3400 </r>
       <r>    -6.7800     0.8606     2.3486 </r>
       <r>    -6.7700     0.7640     2.3563 </r>
       <r>    -6.7600     0.6695     2.3630 </r>
       <r>    -6.7500     0.5782     2.3687 </r>
       <r>    -6.7400     0.4911     2.3737 </r>
       <r>    -6.7300     0.4092     2.3778 </r>
       <r>    -6.7200     0.3331     2.3811 </r>
       <r>    -6.7100     0.2634     2.3837 </r>
       <r>    -6.7000     0.2004     2.3857 </r>
       <r>    -6.6900     0.1442     2.3872 </r>
       <r>    -6.6800     0.0950     2.3881 </r>
       <r>    -6.6700     0.0525     2.3886 </r>
       <r>    -6.6600     0.0165     2.3888 </r>
       <r>    -6.6500    -0.0132     2.3887 </r>
       <r>    -6.6400    -0.0372     2.3883 </r>
       <r>    -6.6300    -0.0560     2.3877 </r>
       <r>    -6.6200    -0.0700     2.3870 </r>
       <r>    -6.6100    -0.0797     2.3862 </r>
       <r>    -6.6000    -0.0859     2.3854 </r>
       <r>    -6.5900    -0.0890     2.3845 </r>
       <r>    -6.5800    -0.0895     2.3836 </r>
       <r>    -6.5700    -0.0879     2.3827 </r>
       <r>    -6.5600    -0.0847     2.3819 </r>
       <r>    -6.5500    -0.0803     2.3811 </r>
       <r>    -6.5400    -0.0751     2.3803 </r>
       <r>    -6.5300    -0.0693     2.3796 </r>
       <r>    -6.5200    -0.0632     2.3790 </r>
       <r>    -6.5100    -0.0570     2.3784 </r>
       <r>    -6.5000    -0.0510     2.3779 </r>
       <r>    -6.4900    -0.0452     2.3775 </r>
       <r>    -6.4800    -0.0398     2.3771 </r>
       <r>    -6.4700    -0.0347     2.3767 </r>
       <r>    -6.4600    -0.0302     2.3764 </r>
       <r>    -6.4500    -0.0261     2.3762 </r>
       <r>    -6.4400    -0.0225     2.3759 </r>
       <r>    -6.4300    -0.0194     2.3757 </r>
       <r>    -6.4200    -0.0168     2.3756 </r>
       <r>    -6.4100    -0.0147     2.3754 </r>
       <r>    -6.4000    -0.0131     2.3753 </r>
       <r>    -6.3900    -0.0118     2.3752 </r>
       <r>    -6.3800    -0.0110     2.3751 </r>
       <r>    -6.3700    -0.0106     2.3750 </r>
       <r>    -6.3600    -0.0106     2.3748 </r>
       <r>    -6.3500    -0.0109     2.3747 </r>
       <r>    -6.3400    -0.0116     2.3746 </r>
       <r>    -6.3300    -0.0127     2.3745 </r>
       <r>    -6.3200    -0.0140     2.3744 </r>
       <r>    -6.3100    -0.0157     2.3742 </r>
       <r>    -6.3000    -0.0177     2.3740 </r>
       <r>    -6.2900    -0.0200     2.3738 </r>
       <r>    -6.2800    -0.0225     2.3736 </r>
       <r>    -6.2700    -0.0252     2.3733 </r>
       <r>    -6.2600    -0.0281     2.3731 </r>
       <r>    -6.2500    -0.0310     2.3728 </r>
       <r>    -6.2400    -0.0339     2.3724 </r>
       <r>    -6.2300    -0.0367     2.3720 </r>
       <r>    -6.2200    -0.0392     2.3717 </r>
       <r>    -6.2100    -0.0413     2.3712 </r>
       <r>    -6.2000    -0.0427     2.3708 </r>
       <r>    -6.1900    -0.0434     2.3704 </r>
       <r>    -6.1800    -0.0430     2.3700 </r>
       <r>    -6.1700    -0.0414     2.3695 </r>
       <r>    -6.1600    -0.0382     2.3692 </r>
       <r>    -6.1500    -0.0332     2.3688 </r>
       <r>    -6.1400    -0.0261     2.3686 </r>
       <r>    -6.1300    -0.0166     2.3684 </r>
       <r>    -6.1200    -0.0045     2.3684 </r>
       <r>    -6.1100     0.0105     2.3685 </r>
       <r>    -6.1000     0.0286     2.3687 </r>
       <r>    -6.0900     0.0499     2.3692 </r>
       <r>    -6.0800     0.0745     2.3700 </r>
       <r>    -6.0700     0.1026     2.3710 </r>
       <r>    -6.0600     0.1341     2.3724 </r>
       <r>    -6.0500     0.1688     2.3740 </r>
       <r>    -6.0400     0.2066     2.3761 </r>
       <r>    -6.0300     0.2472     2.3786 </r>
       <r>    -6.0200     0.2903     2.3815 </r>
       <r>    -6.0100     0.3353     2.3848 </r>
       <r>    -6.0000     0.3816     2.3887 </r>
       <r>    -5.9900     0.4288     2.3929 </r>
       <r>    -5.9800     0.4760     2.3977 </r>
       <r>    -5.9700     0.5226     2.4029 </r>
       <r>    -5.9600     0.5677     2.4086 </r>
       <r>    -5.9500     0.6105     2.4147 </r>
       <r>    -5.9400     0.6503     2.4212 </r>
       <r>    -5.9300     0.6863     2.4281 </r>
       <r>    -5.9200     0.7178     2.4353 </r>
       <r>    -5.9100     0.7441     2.4427 </r>
       <r>    -5.9000     0.7646     2.4503 </r>
       <r>    -5.8900     0.7790     2.4581 </r>
       <r>    -5.8800     0.7869     2.4660 </r>
       <r>    -5.8700     0.7881     2.4739 </r>
       <r>    -5.8600     0.7824     2.4817 </r>
       <r>    -5.8500     0.7700     2.4894 </r>
       <r>    -5.8400     0.7511     2.4969 </r>
       <r>    -5.8300     0.7260     2.5042 </r>
       <r>    -5.8200     0.6951     2.5111 </r>
       <r>    -5.8100     0.6589     2.5177 </r>
       <r>    -5.8000     0.6181     2.5239 </r>
       <r>    -5.7900     0.5734     2.5296 </r>
       <r>    -5.7800     0.5256     2.5349 </r>
       <r>    -5.7700     0.4753     2.5396 </r>
       <r>    -5.7600     0.4235     2.5439 </r>
       <r>    -5.7500     0.3709     2.5476 </r>
       <r>    -5.7400     0.3183     2.5508 </r>
       <r>    -5.7300     0.2664     2.5534 </r>
       <r>    -5.7200     0.2160     2.5556 </r>
       <r>    -5.7100     0.1678     2.5573 </r>
       <r>    -5.7000     0.1223     2.5585 </r>
       <r>    -5.6900     0.0801     2.5593 </r>
       <r>    -5.6800     0.0419     2.5597 </r>
       <r>    -5.6700     0.0081     2.5598 </r>
       <r>    -5.6600    -0.0209     2.5596 </r>
       <r>    -5.6500    -0.0446     2.5591 </r>
       <r>    -5.6400    -0.0626     2.5585 </r>
       <r>    -5.6300    -0.0745     2.5578 </r>
       <r>    -5.6200    -0.0800     2.5570 </r>
       <r>    -5.6100    -0.0788     2.5562 </r>
       <r>    -5.6000    -0.0705     2.5555 </r>
       <r>    -5.5900    -0.0548     2.5549 </r>
       <r>    -5.5800    -0.0316     2.5546 </r>
       <r>    -5.5700    -0.0007     2.5546 </r>
       <r>    -5.5600     0.0380     2.5550 </r>
       <r>    -5.5500     0.0846     2.5558 </r>
       <r>    -5.5400     0.1389     2.5572 </r>
       <r>    -5.5300     0.2008     2.5592 </r>
       <r>    -5.5200     0.2699     2.5619 </r>
       <r>    -5.5100     0.3457     2.5654 </r>
       <r>    -5.5000     0.4276     2.5697 </r>
       <r>    -5.4900     0.5148     2.5748 </r>
       <r>    -5.4800     0.6063     2.5809 </r>
       <r>    -5.4700     0.7011     2.5879 </r>
       <r>    -5.4600     0.7979     2.5959 </r>
       <r>    -5.4500     0.8952     2.6048 </r>
       <r>    -5.4400     0.9917     2.6147 </r>
       <r>    -5.4300     1.0857     2.6256 </r>
       <r>    -5.4200     1.1758     2.6373 </r>
       <r>    -5.4100     1.2603     2.6499 </r>
       <r>    -5.4000     1.3377     2.6633 </r>
       <r>    -5.3900     1.4065     2.6774 </r>
       <r>    -5.3800     1.4655     2.6920 </r>
       <r>    -5.3700     1.5135     2.7072 </r>
       <r>    -5.3600     1.5496     2.7227 </r>
       <r>    -5.3500     1.5730     2.7384 </r>
       <r>    -5.3400     1.5833     2.7542 </r>
       <r>    -5.3300     1.5804     2.7700 </r>
       <r>    -5.3200     1.5643     2.7857 </r>
       <r>    -5.3100     1.5353     2.8010 </r>
       <r>    -5.3000     1.4941     2.8160 </r>
       <r>    -5.2900     1.4415     2.8304 </r>
       <r>    -5.2800     1.3787     2.8442 </r>
       <r>    -5.2700     1.3068     2.8572 </r>
       <r>    -5.2600     1.2273     2.8695 </r>
       <r>    -5.2500     1.1417     2.8809 </r>
       <r>    -5.2400     1.0515     2.8914 </r>
       <r>    -5.2300     0.9584     2.9010 </r>
       <r>    -5.2200     0.8639     2.9097 </r>
       <r>    -5.2100     0.7694     2.9174 </r>
       <r>    -5.2000     0.6764     2.9241 </r>
       <r>    -5.1900     0.5861     2.9300 </r>
       <r>    -5.1800     0.4997     2.9350 </r>
       <r>    -5.1700     0.4181     2.9392 </r>
       <r>    -5.1600     0.3420     2.9426 </r>
       <r>    -5.1500     0.2720     2.9453 </r>
       <r>    -5.1400     0.2085     2.9474 </r>
       <r>    -5.1300     0.1518     2.9489 </r>
       <r>    -5.1200     0.1018     2.9499 </r>
       <r>    -5.1100     0.0586     2.9505 </r>
       <r>    -5.1000     0.0217     2.9507 </r>
       <r>    -5.0900    -0.0090     2.9506 </r>
       <r>    -5.0800    -0.0340     2.9503 </r>
       <r>    -5.0700    -0.0539     2.9498 </r>
       <r>    -5.0600    -0.0691     2.9491 </r>
       <r>    -5.0500    -0.0802     2.9483 </r>
       <r>    -5.0400    -0.0879     2.9474 </r>
       <r>    -5.0300    -0.0927     2.9465 </r>
       <r>    -5.0200    -0.0951     2.9455 </r>
       <r>    -5.0100    -0.0957     2.9446 </r>
       <r>    -5.0000    -0.0949     2.9436 </r>
       <r>    -4.9900    -0.0933     2.9427 </r>
       <r>    -4.9800    -0.0911     2.9418 </r>
       <r>    -4.9700    -0.0888     2.9409 </r>
       <r>    -4.9600    -0.0866     2.9400 </r>
       <r>    -4.9500    -0.0848     2.9392 </r>
       <r>    -4.9400    -0.0835     2.9383 </r>
       <r>    -4.9300    -0.0828     2.9375 </r>
       <r>    -4.9200    -0.0828     2.9367 </r>
       <r>    -4.9100    -0.0835     2.9358 </r>
       <r>    -4.9000    -0.0848     2.9350 </r>
       <r>    -4.8900    -0.0867     2.9341 </r>
       <r>    -4.8800    -0.0888     2.9332 </r>
       <r>    -4.8700    -0.0911     2.9323 </r>
       <r>    -4.8600    -0.0933     2.9314 </r>
       <r>    -4.8500    -0.0949     2.9304 </r>
       <r>    -4.8400    -0.0957     2.9295 </r>
       <r>    -4.8300    -0.0951     2.9285 </r>
       <r>    -4.8200    -0.0926     2.9276 </r>
       <r>    -4.8100    -0.0879     2.9267 </r>
       <r>    -4.8000    -0.0802     2.9259 </r>
       <r>    -4.7900    -0.0690     2.9252 </r>
       <r>    -4.7800    -0.0538     2.9247 </r>
       <r>    -4.7700    -0.0339     2.9244 </r>
       <r>    -4.7600    -0.0088     2.9243 </r>
       <r>    -4.7500     0.0219     2.9245 </r>
       <r>    -4.7400     0.0588     2.9251 </r>
       <r>    -4.7300     0.1021     2.9261 </r>
       <r>    -4.7200     0.1521     2.9276 </r>
       <r>    -4.7100     0.2089     2.9297 </r>
       <r>    -4.7000     0.2724     2.9324 </r>
       <r>    -4.6900     0.3424     2.9359 </r>
       <r>    -4.6800     0.4185     2.9400 </r>
       <r>    -4.6700     0.5002     2.9450 </r>
       <r>    -4.6600     0.5867     2.9509 </r>
       <r>    -4.6500     0.6770     2.9577 </r>
       <r>    -4.6400     0.7700     2.9654 </r>
       <r>    -4.6300     0.8645     2.9740 </r>
       <r>    -4.6200     0.9591     2.9836 </r>
       <r>    -4.6100     1.0523     2.9941 </r>
       <r>    -4.6000     1.1425     3.0056 </r>
       <r>    -4.5900     1.2281     3.0178 </r>
       <r>    -4.5800     1.3077     3.0309 </r>
       <r>    -4.5700     1.3796     3.0447 </r>
       <r>    -4.5600     1.4426     3.0591 </r>
       <r>    -4.5500     1.4953     3.0741 </r>
       <r>    -4.5400     1.5367     3.0895 </r>
       <r>    -4.5300     1.5660     3.1051 </r>
       <r>    -4.5200     1.5825     3.1209 </r>
       <r>    -4.5100     1.5858     3.1368 </r>
       <r>    -4.5000     1.5760     3.1526 </r>
       <r>    -4.4900     1.5532     3.1681 </r>
       <r>    -4.4800     1.5180     3.1833 </r>
       <r>    -4.4700     1.4709     3.1980 </r>
       <r>    -4.4600     1.4130     3.2121 </r>
       <r>    -4.4500     1.3455     3.2256 </r>
       <r>    -4.4400     1.2697     3.2383 </r>
       <r>    -4.4300     1.1869     3.2501 </r>
       <r>    -4.4200     1.0988     3.2611 </r>
       <r>    -4.4100     1.0070     3.2712 </r>
       <r>    -4.4000     0.9130     3.2803 </r>
       <r>    -4.3900     0.8183     3.2885 </r>
       <r>    -4.3800     0.7243     3.2957 </r>
       <r>    -4.3700     0.6325     3.3021 </r>
       <r>    -4.3600     0.5440     3.3075 </r>
       <r>    -4.3500     0.4598     3.3121 </r>
       <r>    -4.3400     0.3808     3.3159 </r>
       <r>    -4.3300     0.3077     3.3190 </r>
       <r>    -4.3200     0.2409     3.3214 </r>
       <r>    -4.3100     0.1808     3.3232 </r>
       <r>    -4.3000     0.1275     3.3245 </r>
       <r>    -4.2900     0.0810     3.3253 </r>
       <r>    -4.2800     0.0412     3.3257 </r>
       <r>    -4.2700     0.0077     3.3258 </r>
       <r>    -4.2600    -0.0198     3.3256 </r>
       <r>    -4.2500    -0.0417     3.3252 </r>
       <r>    -4.2400    -0.0586     3.3246 </r>
       <r>    -4.2300    -0.0710     3.3239 </r>
       <r>    -4.2200    -0.0794     3.3231 </r>
[...]
        <r>  0.2988  0.0076  0.0000  0.0227  0.0000  0.0000  0.0000  0.0000  0.0000 </r>
       </set>
       <set comment="band 2">
        <r>  0.0995  0.0696  0.0000  0.2087  0.0000  0.0000  0.0000  0.0000  0.0000 </r>
        <r>  0.0995  0.0696  0.0000  0.2087  0.0000  0.0000  0.0000  0.0000  0.0000 </r>
       </set>
       <set comment="band 3">
        <r>  0.0000  0.0000  0.2229  0.0000  0.0000  0.0000  0.0000  0.0000  0.0000 </r>
        <r>  0.0000  0.0000  0.2229  0.0000  0.0000  0.0000  0.0000  0.0000  0.0000 </r>
       </set>
       <set comment="band 4">
        <r>  0.0000  0.2965  0.0000  0.0988  0.0000  0.0000  0.0000  0.0000  0.0000 </r>
        <r>  0.0000  0.2965  0.0000  0.0988  0.0000  0.0000  0.0000  0.0000  0.0000 </r>
       </set>
       <set comment="band 5">
        <r>  0.0083  0.0010  0.0000  0.0029  0.0000  0.0000  0.0000  0.0000  0.0000 </r>
        <r>  0.0083  0.0010  0.0000  0.0029  0.0000  0.0000  0.0000  0.0000  0.0000 </r>
       </set>
       <set comment="band 6">
        <r>  0.0000  0.0000  0.3042  0.0000  0.0000  0.0000  0.0000  0.0000  0.0000 </r>
        <r>  0.0000  0.0000  0.3042  0.0000  0.0000  0.0000  0.0000  0.0000  0.0000 </r>
       </set>
       <set comment="band 7">
        <r>  0.1179  0.0293  0.0000  0.0879  0.0000  0.0000  0.0000  0.0000  0.0000 </r>
        <r>  0.1179  0.0293  0.0000  0.0879  0.0000  0.0000  0.0000  0.0000  0.0000 </r>
       </set>
       <set comment="band 8">
        <r>  0.0000  0.0000  0.0707  0.0000  0.0000  0.0000  0.0000  0.0000  0.0000 </r>
        <r>  0.0000  0.0000  0.0707  0.0000  0.0000  0.0000  0.0000  0.0000  0.0000 </r>
       </set>
       <set comment="band 9">
        <r>  0.0231  0.0015  0.0000  0.0045  0.0000  0.0000  0.0000  0.0000  0.0000 </r>
        <r>  0.0231  0.0015  0.0000  0.0045  0.0000  0.0000  0.0000  0.0000  0.0000 </r>
       </set>
       <set comment="band 10">
        <r>  0.0000  0.2254  0.0000  0.0751  0.0000  0.0000  0.0000  0.0000  0.0000 </r>
        <r>  0.0000  0.2254  0.0000  0.0751  0.0000  0.0000  0.0000  0.0000  0.0000 </r>
       </set>
       <set comment="band 11">
        <r>  0.1509  0.0429  0.0000  0.1286  0.0000  0.0000  0.0000  0.0000  0.0000 </r>
        <r>  0.1509  0.0429  0.0000  0.1286  0.0000  0.0000  0.0000  0.0000  0.0000 </r>
       </set>
       <set comment="band 12">
        <r>  0.0000  0.0000  0.0576  0.0000  0.0000  0.0000  0.0000  0.0000  0.0000 </r>
        <r>  0.0000  0.0000  0.0569  0.0000  0.0000  0.0000  0.0000  0.0000  0.0000 </r>
       </set>
      </set>
      <set comment="kpoint 3">
       <set comment="band 1">
        <r>  0.2989  0.0157  0.0000  0.0472  0.0000  0.0000  0.0000  0.0000  0.0000 </r>
        <r>  0.2989  0.0157  0.0000  0.0472  0.0000  0.0000  0.0000  0.0000  0.0000 </r>
       </set>
       <set comment="band 2">
        <r>  0.1383  0.0487  0.0000  0.1460  0.0000  0.0000  0.0000  0.0000  0.0000 </r>
        <r>  0.1383  0.0487  0.0000  0.1460  0.0000  0.0000  0.0000  0.0000  0.0000 </r>
       </set>
       <set comment="band 3">
        <r>  0.0000  0.2936  0.0000  0.0979  0.0000  0.0000  0.0000  0.0000  0.0000 </r>
        <r>  0.0000  0.2936  0.0000  0.0979  0.0000  0.0000  0.0000  0.0000  0.0000 </r>
       </set>
       <set comment="band 4">
        <r>  0.0000  0.0000  0.2554  0.0000  0.0000  0.0000  0.0000  0.0000  0.0000 </r>
        <r>  0.0000  0.0000  0.2554  0.0000  0.0000  0.0000  0.0000  0.0000  0.0000 </r>
       </set>
       <set comment="band 5">
        <r>  0.0000  0.0000  0.2255  0.0000  0.0000  0.0000  0.0000  0.0000  0.0000 </r>
        <r>  0.0000  0.0000  0.2255  0.0000  0.0000  0.0000  0.0000  0.0000  0.0000 </r>
       </set>
       <set comment="band 6">
        <r>  0.1846  0.0103  0.0000  0.0309  0.0000  0.0000  0.0000  0.0000  0.0000 </r>
        <r>  0.1846  0.0103  0.0000  0.0309  0.0000  0.0000  0.0000  0.0000  0.0000 </r>
       </set>
       <set comment="band 7">
        <r>  0.0048  0.0033  0.0000  0.0099  0.0000  0.0000  0.0000  0.0000  0.0000 </r>
        <r>  0.0048  0.0033  0.0000  0.0099  0.0000  0.0000  0.0000  0.0000  0.0000 </r>
       </set>
       <set comment="band 8">
        <r>  0.0020  0.0039  0.0000  0.0118  0.0000  0.0000  0.0000  0.0000  0.0000 </r>
        <r>  0.0020  0.0039  0.0000  0.0118  0.0000  0.0000  0.0000  0.0000  0.0000 </r>
       </set>
       <set comment="band 9">
        <r>  0.0000  0.0000  0.1029  0.0000  0.0000  0.0000  0.0000  0.0000  0.0000 </r>
        <r>  0.0000  0.0000  0.1029  0.0000  0.0000  0.0000  0.0000  0.0000  0.0000 </r>
       </set>
       <set comment="band 10">
        <r>  0.0000  0.0000  0.0532  0.0000  0.0000  0.0000  0.0000  0.0000  0.0000 </r>
        <r>  0.0000  0.0000  0.0532  0.0000  0.0000  0.0000  0.0000  0.0000  0.0000 </r>
       </set>
       <set comment="band 11">
        <r>  0.0000  0.0258  0.0000  0.0772  0.0000  0.0000  0.0000  0.0000  0.0000 </r>
        <r>  0.0000  0.0256  0.0000  0.0771  0.0000  0.0000  0.0000  0.0000  0.0000 </r>
       </set>
       <set comment="band 12">
        <r>  0.0003  0.0153  0.0000  0.0457  0.0000  0.0000  0.0000  0.0000  0.0000 </r>
        <r>  0.0003  0.0153  0.0000  0.0457  0.0000  0.0000  0.0000  0.0000  0.0000 </r>
       </set>
      </set>
      <set comment="kpoint 4">
       <set comment="band 1">
        <r>  0.2612  0.0016  0.0000  0.0826  0.0000  0.0000  0.0000  0.0000  0.0000 </r>
        <r>  0.2612  0.0016  0.0000  0.0826  0.0000  0.0000  0.0000  0.0000  0.0000 </r>
       </set>
       <set comment="band 2">
        <r>  0.1923  0.0554  0.0000  0.1294  0.0000  0.0000  0.0000  0.0000  0.0000 </r>
        <r>  0.1923  0.0554  0.0000  0.1294  0.0000  0.0000  0.0000  0.0000  0.0000 </r>
       </set>
       <set comment="band 3">
        <r>  0.0244  0.2466  0.0000  0.0734  0.0000  0.0000  0.0000  0.0000  0.0000 </r>
        <r>  0.0244  0.2466  0.0000  0.0734  0.0000  0.0000  0.0000  0.0000  0.0000 </r>
       </set>
       <set comment="band 4">
        <r>  0.0000  0.0000  0.2422  0.0000  0.0000  0.0000  0.0000  0.0000  0.0000 </r>
        <r>  0.0000  0.0000  0.2422  0.0000  0.0000  0.0000  0.0000  0.0000  0.0000 </r>
       </set>
       <set comment="band 5">
        <r>  0.0000  0.0000  0.2760  0.0000  0.0000  0.0000  0.0000  0.0000  0.0000 </r>
        <r>  0.0000  0.0000  0.2760  0.0000  0.0000  0.0000  0.0000  0.0000  0.0000 </r>
       </set>
       <set comment="band 6">
        <r>  0.0042  0.0009  0.0000  0.0109  0.0000  0.0000  0.0000  0.0000  0.0000 </r>
        <r>  0.0042  0.0009  0.0000  0.0109  0.0000  0.0000  0.0000  0.0000  0.0000 </r>
       </set>
       <set comment="band 7">
        <r>  0.0000  0.0000  0.0399  0.0000  0.0000  0.0000  0.0000  0.0000  0.0000 </r>
        <r>  0.0000  0.0000  0.0399  0.0000  0.0000  0.0000  0.0000  0.0000  0.0000 </r>
       </set>
       <set comment="band 8">
        <r>  0.0376  0.1478  0.0000  0.0275  0.0000  0.0000  0.0000  0.0000  0.0000 </r>
        <r>  0.0376  0.1478  0.0000  0.0275  0.0000  0.0000  0.0000  0.0000  0.0000 </r>
       </set>
       <set comment="band 9">
        <r>  0.1059  0.1171  0.0000  0.0719  0.0000  0.0000  0.0000  0.0000  0.0000 </r>
        <r>  0.1059  0.1171  0.0000  0.0719  0.0000  0.0000  0.0000  0.0000  0.0000 </r>
       </set>
       <set comment="band 10">
        <r>  0.0000  0.0000  0.0172  0.0000  0.0000  0.0000  0.0000  0.0000  0.0000 </r>
        <r>  0.0000  0.0000  0.0172  0.0000  0.0000  0.0000  0.0000  0.0000  0.0000 </r>
       </set>
       <set comment="band 11">
        <r>  0.0047  0.0000  0.0000  0.0461  0.0000  0.0000  0.0000  0.0000  0.0000 </r>
        <r>  0.0047  0.0000  0.0000  0.0460  0.0000  0.0000  0.0000  0.0000  0.0000 </r>
       </set>
       <set comment="band 12">
        <r>  0.0298  0.0179  0.0000  0.0007  0.0000  0.0000  0.0000  0.0000  0.0000 </r>
        <r>  0.0294  0.0181  0.0000  0.0009  0.0000  0.0000  0.0000  0.0000  0.0000 </r>
       </set>
      </set>
     </set>
     <set comment="spin2">
      <set comment="kpoint 1">
       <set comment="band 1">
        <r>  0.3216  0.0000  0.0000  0.0000  0.0000  0.0000  0.0000  0.0000  0.0000 </r>
        <r>  0.3216  0.0000  0.0000  0.0000  0.0000  0.0000  0.0000  0.0000  0.0000 </r>
       </set>
       <set comment="band 2">
        <r>  0.0000  0.0000  0.2159  0.0000  0.0000  0.0000  0.0000  0.0000  0.0000 </r>
        <r>  0.0000  0.0000  0.2159  0.0000  0.0000  0.0000  0.0000  0.0000  0.0000 </r>
       </set>
       <set comment="band 3">
        <r>  0.0000  0.0000  0.0000  0.4115  0.0000  0.0000  0.0000  0.0000  0.0000 </r>
        <r>  0.0000  0.0000  0.0000  0.4115  0.0000  0.0000  0.0000  0.0000  0.0000 </r>
       </set>
       <set comment="band 4">
        <r>  0.0000  0.4115  0.0000  0.0000  0.0000  0.0000  0.0000  0.0000  0.0000 </r>
        <r>  0.0000  0.4115  0.0000  0.0000  0.0000  0.0000  0.0000  0.0000  0.0000 </r>
       </set>
       <set comment="band 5">
        <r>  0.0111  0.0000  0.0000  0.0000  0.0000  0.0000  0.0000  0.0000  0.0000 </r>
        <r>  0.0111  0.0000  0.0000  0.0000  0.0000  0.0000  0.0000  0.0000  0.0000 </r>
       </set>
       <set comment="band 6">
        <r>  0.0000  0.0000  0.0614  0.0000  0.0000  0.0000  0.0000  0.0000  0.0000 </r>
        <r>  0.0000  0.0000  0.0614  0.0000  0.0000  0.0000  0.0000  0.0000  0.0000 </r>
       </set>
       <set comment="band 7">
        <r>  0.0000  0.2631  0.0000  0.0000  0.0000  0.0000  0.0000  0.0000  0.0000 </r>
        <r>  0.0000  0.2631  0.0000  0.0000  0.0000  0.0000  0.0000  0.0000  0.0000 </r>
       </set>
       <set comment="band 8">
        <r>  0.0000  0.0000  0.0000  0.2631  0.0000  0.0000  0.0000  0.0000  0.0000 </r>
        <r>  0.0000  0.0000  0.0000  0.2631  0.0000  0.0000  0.0000  0.0000  0.0000 </r>
       </set>
       <set comment="band 9">
        <r>  0.0232  0.0000  0.0000  0.0000  0.0000  0.0000  0.0000  0.0000  0.0000 </r>
        <r>  0.0232  0.0000  0.0000  0.0000  0.0000  0.0000  0.0000  0.0000  0.0000 </r>
       </set>
       <set comment="band 10">
        <r>  0.0000  0.0000  0.3915  0.0000  0.0000  0.0000  0.0000  0.0000  0.0000 </r>
        <r>  0.0000  0.0000  0.3915  0.0000  0.0000  0.0000  0.0000  0.0000  0.0000 </r>
       </set>
       <set comment="band 11">
        <r>  0.3582  0.0000  0.0000  0.0000  0.0000  0.0000  0.0000  0.0000  0.0000 </r>
        <r>  0.3582  0.0000  0.0000  0.0000  0.0000  0.0000  0.0000  0.0000  0.0000 </r>
       </set>
       <set comment="band 12">
        <r>  0.0551  0.0000  0.0030  0.0000  0.0000  0.0000  0.0000  0.0000  0.0000 </r>
        <r>  0.0551  0.0000  0.0030  0.0000  0.0000  0.0000  0.0000  0.0000  0.0000 </r>
       </set>
      </set>
      <set comment="kpoint 2">
       <set comment="band 1">
        <r>  0.2988  0.0076  0.0000  0.0227  0.0000  0.0000  0.0000  0.0000  0.0000 </r>
        <r>  0.2988  0.0076  0.0000  0.0227  0.0000  0.0000  0.0000  0.0000  0.0000 </r>
       </set>
       <set comment="band 2">
        <r>  0.0995  0.0696  0.0000  0.2087  0.0000  0.0000  0.0000  0.0000  0.0000 </r>
        <r>  0.0995  0.0696  0.0000  0.2087  0.0000  0.0000  0.0000  0.0000  0.0000 </r>
       </set>
       <set comment="band 3">
        <r>  0.0000  0.0000  0.2229  0.0000  0.0000  0.0000  0.0000  0.0000  0.0000 </r>
        <r>  0.0000  0.0000  0.2229  0.0000  0.0000  0.0000  0.0000  0.0000  0.0000 </r>
       </set>
       <set comment="band 4">
        <r>  0.0000  0.2965  0.0000  0.0988  0.0000  0.0000  0.0000  0.0000  0.0000 </r>
        <r>  0.0000  0.2965  0.0000  0.0988  0.0000  0.0000  0.0000  0.0000  0.0000 </r>
       </set>
       <set comment="band 5">
        <r>  0.0083  0.0010  0.0000  0.0029  0.0000  0.0000  0.0000  0.0000  0.0000 </r>
        <r>  0.0083  0.0010  0.0000  0.0029  0.0000  0.0000  0.0000  0.0000  0.0000 </r>
       </set>
       <set comment="band 6">
        <r>  0.0000  0.0000  0.3041  0.0000  0.0000  0.0000  0.0000  0.0000  0.0000 </r>
        <r>  0.0000  0.0000  0.3041  0.0000  0.0000  0.0000  0.0000  0.0000  0.0000 </r>
       </set>
       <set comment="band 7">
        <r>  0.1178  0.0293  0.0000  0.0880  0.0000  0.0000  0.0000  0.0000  0.0000 </r>
        <r>  0.1178  0.0293  0.0000  0.0880  0.0000  0.0000  0.0000  0.0000  0.0000 </r>
       </set>
       <set comment="band 8">
        <r>  0.0000  0.0000  0.0706  0.0000  0.0000  0.0000  0.0000  0.0000  0.0000 </r>
        <r>  0.0000  0.0000  0.0706  0.0000  0.0000  0.0000  0.0000  0.0000  0.0000 </r>
       </set>
       <set comment="band 9">
        <r>  0.0231  0.0015  0.0000  0.0044  0.0000  0.0000  0.0000  0.0000  0.0000 </r>
        <r>  0.0231  0.0015  0.0000  0.0044  0.0000  0.0000  0.0000  0.0000  0.0000 </r>
       </set>
       <set comment="band 10">
        <r>  0.0000  0.2254  0.0000  0.0751  0.0000  0.0000  0.0000  0.0000  0.0000 </r>
        <r>  0.0000  0.2254  0.0000  0.0751  0.0000  0.0000  0.0000  0.0000  0.0000 </r>
       </set>
       <set comment="band 11">
        <r>  0.1509  0.0429  0.0000  0.1286  0.0000  0.0000  0.0000  0.0000  0.0000 </r>
        <r>  0.1509  0.0429  0.0000  0.1286  0.0000  0.0000  0.0000  0.0000  0.0000 </r>
       </set>
       <set comment="band 12">
        <r>  0.0000  0.0000  0.0573  0.0000  0.0000  0.0000  0.0000  0.0000  0.0000 </r>
        <r>  0.0000  0.0000  0.0571  0.0000  0.0000  0.0000  0.0000  0.0000  0.0000 </r>
       </set>
      </set>
      <set comment="kpoint 3">
       <set comment="band 1">
        <r>  0.2989  0.0157  0.0000  0.0472  0.0000  0.0000  0.0000  0.0000  0.0000 </r>
        <r>  0.2989  0.0157  0.0000  0.0472  0.0000  0.0000  0.0000  0.0000  0.0000 </r>
       </set>
       <set comment="band 2">
        <r>  0.1383  0.0487  0.0000  0.1460  0.0000  0.0000  0.0000  0.0000  0.0000 </r>
        <r>  0.1383  0.0487  0.0000  0.1460  0.0000  0.0000  0.0000  0.0000  0.0000 </r>
       </set>
       <set comment="band 3">
        <r>  0.0000  0.2936  0.0000  0.0979  0.0000  0.0000  0.0000  0.0000  0.0000 </r>
        <r>  0.0000  0.2936  0.0000  0.0979  0.0000  0.0000  0.0000  0.0000  0.0000 </r>
       </set>
       <set comment="band 4">
        <r>  0.0000  0.0000  0.2554  0.0000  0.0000  0.0000  0.0000  0.0000  0.0000 </r>
        <r>  0.0000  0.0000  0.2554  0.0000  0.0000  0.0000  0.0000  0.0000  0.0000 </r>
       </set>
       <set comment="band 5">
        <r>  0.0000  0.0000  0.2255  0.0000  0.0000  0.0000  0.0000  0.0000  0.0000 </r>
        <r>  0.0000  0.0000  0.2255  0.0000  0.0000  0.0000  0.0000  0.0000  0.0000 </r>
       </set>
       <set comment="band 6">
        <r>  0.1846  0.0103  0.0000  0.0310  0.0000  0.0000  0.0000  0.0000  0.0000 </r>
        <r>  0.1846  0.0103  0.0000  0.0310  0.0000  0.0000  0.0000  0.0000  0.0000 </r>
       </set>
       <set comment="band 7">
        <r>  0.0048  0.0033  0.0000  0.0098  0.0000  0.0000  0.0000  0.0000  0.0000 </r>
        <r>  0.0048  0.0033  0.0000  0.0098  0.0000  0.0000  0.0000  0.0000  0.0000 </r>
       </set>
       <set comment="band 8">
        <r>  0.0019  0.0039  0.0000  0.0116  0.0000  0.0000  0.0000  0.0000  0.0000 </r>
        <r>  0.0019  0.0039  0.0000  0.0116  0.0000  0.0000  0.0000  0.0000  0.0000 </r>
       </set>
       <set comment="band 9">
        <r>  0.0000  0.0000  0.1029  0.0000  0.0000  0.0000  0.0000  0.0000  0.0000 </r>
        <r>  0.0000  0.0000  0.1029  0.0000  0.0000  0.0000  0.0000  0.0000  0.0000 </r>
       </set>
       <set comment="band 10">
        <r>  0.0000  0.0000  0.0532  0.0000  0.0000  0.0000  0.0000  0.0000  0.0000 </r>
        <r>  0.0000  0.0000  0.0532  0.0000  0.0000  0.0000  0.0000  0.0000  0.0000 </r>
       </set>
       <set comment="band 11">
        <r>  0.0000  0.0256  0.0000  0.0766  0.0000  0.0000  0.0000  0.0000  0.0000 </r>
        <r>  0.0000  0.0255  0.0000  0.0767  0.0000  0.0000  0.0000  0.0000  0.0000 </r>
       </set>
       <set comment="band 12">
        <r>  0.0003  0.0151  0.0000  0.0457  0.0000  0.0000  0.0000  0.0000  0.0000 </r>
        <r>  0.0003  0.0151  0.0000  0.0456  0.0000  0.0000  0.0000  0.0000  0.0000 </r>
       </set>
      </set>
      <set comment="kpoint 4">
       <set comment="band 1">
        <r>  0.2612  0.0016  0.0000  0.0826  0.0000  0.0000  0.0000  0.0000  0.0000 </r>
        <r>  0.2612  0.0016  0.0000  0.0826  0.0000  0.0000  0.0000  0.0000  0.0000 </r>
       </set>
       <set comment="band 2">
        <r>  0.1923  0.0554  0.0000  0.1294  0.0000  0.0000  0.0000  0.0000  0.0000 </r>
        <r>  0.1923  0.0554  0.0000  0.1294  0.0000  0.0000  0.0000  0.0000  0.0000 </r>
       </set>
       <set comment="band 3">
        <r>  0.0244  0.2466  0.0000  0.0734  0.0000  0.0000  0.0000  0.0000  0.0000 </r>
        <r>  0.0244  0.2466  0.0000  0.0734  0.0000  0.0000  0.0000  0.0000  0.0000 </r>
       </set>
       <set comment="band 4">
        <r>  0.0000  0.0000  0.2422  0.0000  0.0000  0.0000  0.0000  0.0000  0.0000 </r>
        <r>  0.0000  0.0000  0.2422  0.0000  0.0000  0.0000  0.0000  0.0000  0.0000 </r>
       </set>
       <set comment="band 5">
        <r>  0.0000  0.0000  0.2760  0.0000  0.0000  0.0000  0.0000  0.0000  0.0000 </r>
        <r>  0.0000  0.0000  0.2760  0.0000  0.0000  0.0000  0.0000  0.0000  0.0000 </r>
       </set>
       <set comment="band 6">
        <r>  0.0042  0.0009  0.0000  0.0108  0.0000  0.0000  0.0000  0.0000  0.0000 </r>
        <r>  0.0042  0.0009  0.0000  0.0108  0.0000  0.0000  0.0000  0.0000  0.0000 </r>
       </set>
       <set comment="band 7">
        <r>  0.0000  0.0000  0.0399  0.0000  0.0000  0.0000  0.0000  0.0000  0.0000 </r>
        <r>  0.0000  0.0000  0.0399  0.0000  0.0000  0.0000  0.0000  0.0000  0.0000 </r>
       </set>
       <set comment="band 8">
        <r>  0.0375  0.1476  0.0000  0.0276  0.0000  0.0000  0.0000  0.0000  0.0000 </r>
        <r>  0.0375  0.1478  0.0000  0.0275  0.0000  0.0000  0.0000  0.0000  0.0000 </r>
       </set>
       <set comment="band 9">
        <r>  0.1058  0.1171  0.0000  0.0719  0.0000  0.0000  0.0000  0.0000  0.0000 </r>
        <r>  0.1058  0.1171  0.0000  0.0719  0.0000  0.0000  0.0000  0.0000  0.0000 </r>
       </set>
       <set comment="band 10">
        <r>  0.0000  0.0000  0.0172  0.0000  0.0000  0.0000  0.0000  0.0000  0.0000 </r>
        <r>  0.0000  0.0000  0.0172  0.0000  0.0000  0.0000  0.0000  0.0000  0.0000 </r>
       </set>
       <set comment="band 11">
        <r>  0.0049  0.0000  0.0000  0.0456  0.0000  0.0000  0.0000  0.0000  0.0000 </r>
        <r>  0.0049  0.0000  0.0000  0.0456  0.0000  0.0000  0.0000  0.0000  0.0000 </r>
       </set>
       <set comment="band 12">
        <r>  0.0295  0.0179  0.0000  0.0007  0.0000  0.0000  0.0000  0.0000  0.0000 </r>
        <r>  0.0297  0.0178  0.0000  0.0007  0.0000  0.0000  0.0000  0.0000  0.0000 </r>
       </set>
      </set>
     </set>
    </set>
   </array>
  </projected>
 </calculation>
 <structure name="finalpos" >
  <crystal>
   <varray name="basis" >
    <v>       1.23618661      -2.14113802       0.00000000 </v>
    <v>       1.23618661       2.14113802       0.00000000 </v>
    <v>       0.00000000       0.00000000       6.32142195 </v>
   </varray>
   <i name="volume">     33.46366287 </i>
   <varray name="rec_basis" >
    <v>       0.40446968      -0.23352068       0.00000000 </v>
    <v>       0.40446968       0.23352068       0.00000000 </v>
    <v>       0.00000000       0.00000000       0.15819226 </v>
   </varray>
  </crystal>
  <varray name="positions" >
   <v>       0.33333333       0.16666667       0.50000000 </v>
   <v>       0.66666667       0.83333333       0.50000000 </v>
  </varray>
  <varray name="selective"  type="logical" >
   <v type="logical" >  T  T  T </v>
   <v type="logical" >  T  T  T </v>
  </varray>
  <nose>
   <v>      -3.00000000       0.00000000       0.00010000       0.00010000 </v>
  </nose>
 </structure>
</modeling>
