unknown system                          
   1.00000000000000     
     1.236187   -2.141138    0.000000
     1.236187    2.141138    0.000000
     0.000000    0.000000    6.321422
   C 
     2
Direct
   0.333333  0.166667  0.500000
   0.666667  0.833333  0.500000
 
   32   32   84
 0.69102E-03 0.68501E-03 0.67610E-03 0.68168E-03 0.70858E-03 0.74621E-03 0.77769E-03 0.79461E-03 0.79910E-03 0.79402E-03
 0.77667E-03 0.74502E-03 0.70749E-03 0.68091E-03 0.67572E-03 0.68494E-03 0.69108E-03 0.68494E-03 0.67572E-03 0.68091E-03
 0.70749E-03 0.74502E-03 0.77667E-03 0.79402E-03 0.79910E-03 0.79461E-03 0.77769E-03 0.74621E-03 0.70858E-03 0.68168E-03
 0.67610E-03 0.68501E-03 0.68381E-03 0.68488E-03 0.67931E-03 0.68346E-03 0.71156E-03 0.76055E-03 0.81255E-03 0.85044E-03
 0.86853E-03 0.86857E-03 0.85052E-03 0.81256E-03 0.76041E-03 0.71128E-03 0.68318E-03 0.67916E-03 0.68494E-03 0.68398E-03
 0.67416E-03 0.66807E-03 0.67742E-03 0.69997E-03 0.72269E-03 0.73568E-03 0.73976E-03 0.74024E-03 0.73697E-03 0.72435E-03
 0.70150E-03 0.67844E-03 0.66849E-03 0.67414E-03 0.66739E-03 0.67388E-03 0.67566E-03 0.68313E-03 0.71211E-03 0.76727E-03
 0.83547E-03 0.89574E-03 0.93394E-03 0.94676E-03 0.93467E-03 0.89689E-03 0.83660E-03 0.76804E-03 0.71243E-03 0.68318E-03
 0.67572E-03 0.67416E-03 0.66783E-03 0.66005E-03 0.66065E-03 0.67250E-03 0.68775E-03 0.69684E-03 0.69830E-03 0.69787E-03
 0.69912E-03 0.69813E-03 0.68899E-03 0.67326E-03 0.66078E-03 0.65972E-03 0.65159E-03 0.65961E-03 0.66796E-03 0.68090E-03
 0.71096E-03 0.76710E-03 0.84346E-03 0.92109E-03 0.98054E-03 0.10116E-02 0.10122E-02 0.98198E-03 0.92288E-03 0.84501E-03
 0.76804E-03 0.71128E-03 0.68091E-03 0.66807E-03 0.66005E-03 0.65232E-03 0.64915E-03 0.65441E-03 0.66467E-03 0.67227E-03
 0.67353E-03 0.67175E-03 0.67195E-03 0.67399E-03 0.67267E-03 0.66470E-03 0.65397E-03 0.64840E-03 0.64107E-03 0.64873E-03
 0.66070E-03 0.67773E-03 0.70766E-03 0.76006E-03 0.83561E-03 0.92143E-03 0.99769E-03 0.10484E-02 0.10662E-02 0.10493E-02
 0.99913E-03 0.92288E-03 0.83660E-03 0.76041E-03 0.70749E-03 0.67742E-03 0.66065E-03 0.64915E-03 0.64194E-03 0.64145E-03
 0.64714E-03 0.65417E-03 0.65790E-03 0.65798E-03 0.65737E-03 0.65780E-03 0.65746E-03 0.65342E-03 0.64613E-03 0.64037E-03
 0.63346E-03 0.64127E-03 0.65473E-03 0.67315E-03 0.70067E-03 0.74549E-03 0.81264E-03 0.89659E-03 0.98147E-03 0.10488E-02
 0.10855E-02 0.10857E-02 0.10493E-02 0.98198E-03 0.89689E-03 0.81256E-03 0.74502E-03 0.69997E-03 0.67250E-03 0.65441E-03
 0.64145E-03 0.63417E-03 0.63363E-03 0.63812E-03 0.64391E-03 0.64810E-03 0.64987E-03 0.64959E-03 0.64731E-03 0.64277E-03
 0.63686E-03 0.63253E-03 0.62555E-03 0.63388E-03 0.64776E-03 0.66547E-03 0.68858E-03 0.72350E-03 0.77745E-03 0.85129E-03
 0.93539E-03 0.10128E-02 0.10665E-02 0.10855E-02 0.10662E-02 0.10122E-02 0.93467E-03 0.85052E-03 0.77667E-03 0.72269E-03
 0.68775E-03 0.66467E-03 0.64714E-03 0.63363E-03 0.62580E-03 0.62478E-03 0.62923E-03 0.63593E-03 0.64141E-03 0.64330E-03
 0.64080E-03 0.63493E-03 0.62820E-03 0.62404E-03 0.61748E-03 0.62553E-03 0.63900E-03 0.65491E-03 0.67277E-03 0.69721E-03
 0.73621E-03 0.79493E-03 0.86988E-03 0.94821E-03 0.10128E-02 0.10488E-02 0.10484E-02 0.10116E-02 0.94676E-03 0.86857E-03
 0.79402E-03 0.73568E-03 0.69684E-03 0.67227E-03 0.65417E-03 0.63812E-03 0.62478E-03 0.61714E-03 0.61668E-03 0.62179E-03
 0.62862E-03 0.63314E-03 0.63292E-03 0.62809E-03 0.62128E-03 0.61651E-03 0.61090E-03 0.61776E-03 0.63025E-03 0.64449E-03
 0.65786E-03 0.67305E-03 0.69782E-03 0.73976E-03 0.79985E-03 0.86988E-03 0.93539E-03 0.98147E-03 0.99769E-03 0.98054E-03
 0.93394E-03 0.86853E-03 0.79910E-03 0.73976E-03 0.69830E-03 0.67353E-03 0.65790E-03 0.64391E-03 0.62923E-03 0.61668E-03
 0.61012E-03 0.61049E-03 0.61512E-03 0.61994E-03 0.62184E-03 0.61984E-03 0.61512E-03 0.61082E-03 0.60657E-03 0.61155E-03
 0.62269E-03 0.63627E-03 0.64767E-03 0.65685E-03 0.67032E-03 0.69670E-03 0.73976E-03 0.79493E-03 0.85129E-03 0.89659E-03
 0.92143E-03 0.92109E-03 0.89574E-03 0.85044E-03 0.79461E-03 0.74024E-03 0.69787E-03 0.67175E-03 0.65798E-03 0.64810E-03
 0.63593E-03 0.62179E-03 0.61049E-03 0.60568E-03 0.60664E-03 0.60982E-03 0.61210E-03 0.61216E-03 0.61008E-03 0.60720E-03
 0.60564E-03 0.60736E-03 0.61563E-03 0.62867E-03 0.64083E-03 0.64867E-03 0.65577E-03 0.67032E-03 0.69782E-03 0.73621E-03
 0.77745E-03 0.81264E-03 0.83561E-03 0.84346E-03 0.83547E-03 0.81255E-03 0.77769E-03 0.73697E-03 0.69912E-03 0.67195E-03
 0.65737E-03 0.64987E-03 0.64141E-03 0.62862E-03 0.61512E-03 0.60664E-03 0.60494E-03 0.60708E-03 0.60940E-03 0.61032E-03
 0.60967E-03 0.60761E-03 0.61043E-03 0.60734E-03 0.60980E-03 0.61960E-03 0.63251E-03 0.64247E-03 0.64867E-03 0.65685E-03
 0.67305E-03 0.69721E-03 0.72350E-03 0.74549E-03 0.76006E-03 0.76710E-03 0.76727E-03 0.76055E-03 0.74621E-03 0.72435E-03
 0.69813E-03 0.67399E-03 0.65780E-03 0.64959E-03 0.64330E-03 0.63314E-03 0.61994E-03 0.60982E-03 0.60708E-03 0.61004E-03
 0.61398E-03 0.61613E-03 0.61626E-03 0.61432E-03 0.62085E-03 0.61389E-03 0.60898E-03 0.61141E-03 0.62115E-03 0.63251E-03
 0.64083E-03 0.64767E-03 0.65786E-03 0.67277E-03 0.68858E-03 0.70067E-03 0.70766E-03 0.71096E-03 0.71211E-03 0.71156E-03
 0.70858E-03 0.70150E-03 0.68899E-03 0.67267E-03 0.65746E-03 0.64731E-03 0.64080E-03 0.63292E-03 0.62184E-03 0.61210E-03
 0.60940E-03 0.61398E-03 0.62072E-03 0.62513E-03 0.62649E-03 0.62528E-03 0.63155E-03 0.62491E-03 0.61556E-03 0.60949E-03
 0.61141E-03 0.61960E-03 0.62867E-03 0.63627E-03 0.64449E-03 0.65491E-03 0.66547E-03 0.67315E-03 0.67773E-03 0.68090E-03
 0.68313E-03 0.68346E-03 0.68168E-03 0.67844E-03 0.67326E-03 0.66470E-03 0.65342E-03 0.64277E-03 0.63493E-03 0.62809E-03
 0.61984E-03 0.61216E-03 0.61032E-03 0.61613E-03 0.62513E-03 0.63155E-03 0.63396E-03 0.63399E-03 0.63618E-03 0.63377E-03
 0.62603E-03 0.61556E-03 0.60898E-03 0.60980E-03 0.61563E-03 0.62269E-03 0.63025E-03 0.63900E-03 0.64776E-03 0.65473E-03
 0.66070E-03 0.66796E-03 0.67566E-03 0.67931E-03 0.67610E-03 0.66849E-03 0.66078E-03 0.65397E-03 0.64613E-03 0.63686E-03
 0.62820E-03 0.62128E-03 0.61512E-03 0.61008E-03 0.60967E-03 0.61626E-03 0.62649E-03 0.63396E-03 0.63622E-03 0.63619E-03
 0.63464E-03 0.63611E-03 0.63377E-03 0.62491E-03 0.61389E-03 0.60734E-03 0.60736E-03 0.61155E-03 0.61776E-03 0.62553E-03
 0.63388E-03 0.64127E-03 0.64873E-03 0.65961E-03 0.67388E-03 0.68488E-03 0.68501E-03 0.67414E-03 0.65972E-03 0.64840E-03
 0.64037E-03 0.63253E-03 0.62404E-03 0.61651E-03 0.61082E-03 0.60720E-03 0.60761E-03 0.61432E-03 0.62528E-03 0.63399E-03
 0.63619E-03 0.63466E-03 0.63289E-03 0.63464E-03 0.63618E-03 0.63155E-03 0.62085E-03 0.61043E-03 0.60564E-03 0.60657E-03
 0.61090E-03 0.61748E-03 0.62555E-03 0.63346E-03 0.64107E-03 0.65159E-03 0.66739E-03 0.68381E-03 0.69102E-03 0.68381E-03
 0.66739E-03 0.65159E-03 0.64107E-03 0.63346E-03 0.62555E-03 0.61748E-03 0.61090E-03 0.60657E-03 0.60564E-03 0.61043E-03
 0.62085E-03 0.63155E-03 0.63618E-03 0.63464E-03 0.63464E-03 0.63466E-03 0.63619E-03 0.63399E-03 0.62528E-03 0.61432E-03
 0.60761E-03 0.60720E-03 0.61082E-03 0.61651E-03 0.62404E-03 0.63253E-03 0.64037E-03 0.64840E-03 0.65972E-03 0.67414E-03
 0.68501E-03 0.68488E-03 0.67388E-03 0.65961E-03 0.64873E-03 0.64127E-03 0.63388E-03 0.62553E-03 0.61776E-03 0.61155E-03
 0.60736E-03 0.60734E-03 0.61389E-03 0.62491E-03 0.63377E-03 0.63611E-03 0.63618E-03 0.63619E-03 0.63622E-03 0.63396E-03
 0.62649E-03 0.61626E-03 0.60967E-03 0.61008E-03 0.61512E-03 0.62128E-03 0.62820E-03 0.63686E-03 0.64613E-03 0.65397E-03
 0.66078E-03 0.66849E-03 0.67610E-03 0.67931E-03 0.67566E-03 0.66796E-03 0.66070E-03 0.65473E-03 0.64776E-03 0.63900E-03
 0.63025E-03 0.62269E-03 0.61563E-03 0.60980E-03 0.60898E-03 0.61556E-03 0.62603E-03 0.63377E-03 0.63155E-03 0.63399E-03
 0.63396E-03 0.63155E-03 0.62513E-03 0.61613E-03 0.61032E-03 0.61216E-03 0.61984E-03 0.62809E-03 0.63493E-03 0.64277E-03
 0.65342E-03 0.66470E-03 0.67326E-03 0.67844E-03 0.68168E-03 0.68346E-03 0.68313E-03 0.68090E-03 0.67773E-03 0.67315E-03
 0.66547E-03 0.65491E-03 0.64449E-03 0.63627E-03 0.62867E-03 0.61960E-03 0.61141E-03 0.60949E-03 0.61556E-03 0.62491E-03
 0.62085E-03 0.62528E-03 0.62649E-03 0.62513E-03 0.62072E-03 0.61398E-03 0.60940E-03 0.61210E-03 0.62184E-03 0.63292E-03
 0.64080E-03 0.64731E-03 0.65746E-03 0.67267E-03 0.68899E-03 0.70150E-03 0.70858E-03 0.71156E-03 0.71211E-03 0.71096E-03
 0.70766E-03 0.70067E-03 0.68858E-03 0.67277E-03 0.65786E-03 0.64767E-03 0.64083E-03 0.63251E-03 0.62115E-03 0.61141E-03
 0.60898E-03 0.61389E-03 0.61043E-03 0.61432E-03 0.61626E-03 0.61613E-03 0.61398E-03 0.61004E-03 0.60708E-03 0.60982E-03
 0.61994E-03 0.63314E-03 0.64330E-03 0.64959E-03 0.65780E-03 0.67399E-03 0.69813E-03 0.72435E-03 0.74621E-03 0.76055E-03
 0.76727E-03 0.76710E-03 0.76006E-03 0.74549E-03 0.72350E-03 0.69721E-03 0.67305E-03 0.65685E-03 0.64867E-03 0.64247E-03
 0.63251E-03 0.61960E-03 0.60980E-03 0.60734E-03 0.60564E-03 0.60761E-03 0.60967E-03 0.61032E-03 0.60940E-03 0.60708E-03
 0.60494E-03 0.60664E-03 0.61512E-03 0.62862E-03 0.64141E-03 0.64987E-03 0.65737E-03 0.67195E-03 0.69912E-03 0.73697E-03
 0.77769E-03 0.81255E-03 0.83547E-03 0.84346E-03 0.83561E-03 0.81264E-03 0.77745E-03 0.73621E-03 0.69782E-03 0.67032E-03
 0.65577E-03 0.64867E-03 0.64083E-03 0.62867E-03 0.61563E-03 0.60736E-03 0.60657E-03 0.60720E-03 0.61008E-03 0.61216E-03
 0.61210E-03 0.60982E-03 0.60664E-03 0.60568E-03 0.61049E-03 0.62179E-03 0.63593E-03 0.64810E-03 0.65798E-03 0.67175E-03
 0.69787E-03 0.74024E-03 0.79461E-03 0.85044E-03 0.89574E-03 0.92109E-03 0.92143E-03 0.89659E-03 0.85129E-03 0.79493E-03
 0.73976E-03 0.69670E-03 0.67032E-03 0.65685E-03 0.64767E-03 0.63627E-03 0.62269E-03 0.61155E-03 0.61090E-03 0.61082E-03
 0.61512E-03 0.61984E-03 0.62184E-03 0.61994E-03 0.61512E-03 0.61049E-03 0.61012E-03 0.61668E-03 0.62923E-03 0.64391E-03
 0.65790E-03 0.67353E-03 0.69830E-03 0.73976E-03 0.79910E-03 0.86853E-03 0.93394E-03 0.98054E-03 0.99769E-03 0.98147E-03
 0.93539E-03 0.86988E-03 0.79985E-03 0.73976E-03 0.69782E-03 0.67305E-03 0.65786E-03 0.64449E-03 0.63025E-03 0.61776E-03
 0.61748E-03 0.61651E-03 0.62128E-03 0.62809E-03 0.63292E-03 0.63314E-03 0.62862E-03 0.62179E-03 0.61668E-03 0.61714E-03
 0.62478E-03 0.63812E-03 0.65417E-03 0.67227E-03 0.69684E-03 0.73568E-03 0.79402E-03 0.86857E-03 0.94676E-03 0.10116E-02
 0.10484E-02 0.10488E-02 0.10128E-02 0.94821E-03 0.86988E-03 0.79493E-03 0.73621E-03 0.69721E-03 0.67277E-03 0.65491E-03
 0.63900E-03 0.62553E-03 0.62555E-03 0.62404E-03 0.62820E-03 0.63493E-03 0.64080E-03 0.64330E-03 0.64141E-03 0.63593E-03
 0.62923E-03 0.62478E-03 0.62580E-03 0.63363E-03 0.64714E-03 0.66467E-03 0.68775E-03 0.72269E-03 0.77667E-03 0.85052E-03
 0.93467E-03 0.10122E-02 0.10662E-02 0.10855E-02 0.10665E-02 0.10128E-02 0.93539E-03 0.85129E-03 0.77745E-03 0.72350E-03
 0.68858E-03 0.66547E-03 0.64776E-03 0.63388E-03 0.63346E-03 0.63253E-03 0.63686E-03 0.64277E-03 0.64731E-03 0.64959E-03
 0.64987E-03 0.64810E-03 0.64391E-03 0.63812E-03 0.63363E-03 0.63417E-03 0.64145E-03 0.65441E-03 0.67250E-03 0.69997E-03
 0.74502E-03 0.81256E-03 0.89689E-03 0.98198E-03 0.10493E-02 0.10857E-02 0.10855E-02 0.10488E-02 0.98147E-03 0.89659E-03
 0.81264E-03 0.74549E-03 0.70067E-03 0.67315E-03 0.65473E-03 0.64127E-03 0.64107E-03 0.64037E-03 0.64613E-03 0.65342E-03
 0.65746E-03 0.65780E-03 0.65737E-03 0.65798E-03 0.65790E-03 0.65417E-03 0.64714E-03 0.64145E-03 0.64194E-03 0.64915E-03
 0.66065E-03 0.67742E-03 0.70749E-03 0.76041E-03 0.83660E-03 0.92288E-03 0.99913E-03 0.10493E-02 0.10662E-02 0.10484E-02
 0.99769E-03 0.92143E-03 0.83561E-03 0.76006E-03 0.70766E-03 0.67773E-03 0.66070E-03 0.64873E-03 0.65159E-03 0.64840E-03
 0.65397E-03 0.66470E-03 0.67267E-03 0.67399E-03 0.67195E-03 0.67175E-03 0.67353E-03 0.67227E-03 0.66467E-03 0.65441E-03
 0.64915E-03 0.65232E-03 0.66005E-03 0.66807E-03 0.68091E-03 0.71128E-03 0.76804E-03 0.84501E-03 0.92288E-03 0.98198E-03
 0.10122E-02 0.10116E-02 0.98054E-03 0.92109E-03 0.84346E-03 0.76710E-03 0.71096E-03 0.68090E-03 0.66796E-03 0.65961E-03
 0.66739E-03 0.65972E-03 0.66078E-03 0.67326E-03 0.68899E-03 0.69813E-03 0.69912E-03 0.69787E-03 0.69830E-03 0.69684E-03
 0.68775E-03 0.67250E-03 0.66065E-03 0.66005E-03 0.66783E-03 0.67416E-03 0.67572E-03 0.68318E-03 0.71243E-03 0.76804E-03
 0.83660E-03 0.89689E-03 0.93467E-03 0.94676E-03 0.93394E-03 0.89574E-03 0.83547E-03 0.76727E-03 0.71211E-03 0.68313E-03
 0.67566E-03 0.67388E-03 0.68381E-03 0.67414E-03 0.66849E-03 0.67844E-03 0.70150E-03 0.72435E-03 0.73697E-03 0.74024E-03
 0.73976E-03 0.73568E-03 0.72269E-03 0.69997E-03 0.67742E-03 0.66807E-03 0.67416E-03 0.68398E-03 0.68494E-03 0.67916E-03
 0.68318E-03 0.71128E-03 0.76041E-03 0.81256E-03 0.85052E-03 0.86857E-03 0.86853E-03 0.85044E-03 0.81255E-03 0.76055E-03
 0.71156E-03 0.68346E-03 0.67931E-03 0.68488E-03 0.94163E-03 0.93171E-03 0.91080E-03 0.89673E-03 0.89961E-03 0.91455E-03
 0.92959E-03 0.93775E-03 0.93974E-03 0.93734E-03 0.92888E-03 0.91371E-03 0.89885E-03 0.89619E-03 0.91054E-03 0.93166E-03
 0.94167E-03 0.93166E-03 0.91053E-03 0.89619E-03 0.89885E-03 0.91371E-03 0.92888E-03 0.93734E-03 0.93974E-03 0.93775E-03
 0.92959E-03 0.91455E-03 0.89961E-03 0.89673E-03 0.91080E-03 0.93171E-03 0.93161E-03 0.93162E-03 0.91680E-03 0.90309E-03
 0.90617E-03 0.92769E-03 0.95586E-03 0.97771E-03 0.98825E-03 0.98827E-03 0.97776E-03 0.95586E-03 0.92759E-03 0.90598E-03
 0.90289E-03 0.91670E-03 0.93166E-03 0.93173E-03 0.91518E-03 0.89488E-03 0.88471E-03 0.88716E-03 0.89432E-03 0.89851E-03
 0.89922E-03 0.89956E-03 0.89942E-03 0.89549E-03 0.88824E-03 0.88544E-03 0.89518E-03 0.91517E-03 0.90657E-03 0.91498E-03
 0.91048E-03 0.90285E-03 0.90819E-03 0.93423E-03 0.97355E-03 0.10109E-02 0.10353E-02 0.10435E-02 0.10358E-02 0.10117E-02
 0.97435E-03 0.93477E-03 0.90842E-03 0.90289E-03 0.91053E-03 0.91518E-03 0.90688E-03 0.88968E-03 0.87511E-03 0.86987E-03
 0.87098E-03 0.87187E-03 0.87037E-03 0.86936E-03 0.87094E-03 0.87278E-03 0.87186E-03 0.87040E-03 0.87521E-03 0.88946E-03
 0.87654E-03 0.88937E-03 0.89480E-03 0.89618E-03 0.90575E-03 0.93411E-03 0.97982E-03 0.10299E-02 0.10695E-02 0.10906E-02
 0.10909E-02 0.10705E-02 0.10311E-02 0.98091E-03 0.93477E-03 0.90598E-03 0.89619E-03 0.89488E-03 0.88968E-03 0.87706E-03
 0.86289E-03 0.85418E-03 0.85183E-03 0.85158E-03 0.85008E-03 0.84818E-03 0.84832E-03 0.85041E-03 0.85186E-03 0.85185E-03
 0.85387E-03 0.86236E-03 0.84805E-03 0.86259E-03 0.87515E-03 0.88493E-03 0.89897E-03 0.92735E-03 0.97365E-03 0.10301E-02
 0.10823E-02 0.11177E-02 0.11302E-02 0.11183E-02 0.10833E-02 0.10311E-02 0.97435E-03 0.92759E-03 0.89885E-03 0.88471E-03
 0.87511E-03 0.86289E-03 0.84867E-03 0.83744E-03 0.83219E-03 0.83141E-03 0.83177E-03 0.83159E-03 0.83131E-03 0.83146E-03
 0.83147E-03 0.83088E-03 0.83147E-03 0.83667E-03 0.82184E-03 0.83731E-03 0.85440E-03 0.87033E-03 0.88766E-03 0.91405E-03
 0.95592E-03 0.10115E-02 0.10702E-02 0.11180E-02 0.11444E-02 0.11445E-02 0.11183E-02 0.10705E-02 0.10117E-02 0.95586E-03
 0.91371E-03 0.88716E-03 0.86987E-03 0.85418E-03 0.83744E-03 0.82235E-03 0.81268E-03 0.80947E-03 0.81070E-03 0.81332E-03
 0.81506E-03 0.81486E-03 0.81277E-03 0.80989E-03 0.80858E-03 0.81190E-03 0.79695E-03 0.81286E-03 0.83263E-03 0.85239E-03
 0.87157E-03 0.89489E-03 0.92943E-03 0.97831E-03 0.10363E-02 0.10914E-02 0.11304E-02 0.11444E-02 0.11302E-02 0.10909E-02
 0.10358E-02 0.97776E-03 0.92888E-03 0.89432E-03 0.87098E-03 0.85183E-03 0.83219E-03 0.81268E-03 0.79713E-03 0.78864E-03
 0.78729E-03 0.79043E-03 0.79432E-03 0.79585E-03 0.79389E-03 0.78973E-03 0.78656E-03 0.78811E-03 0.77360E-03 0.78917E-03
 0.81009E-03 0.83194E-03 0.85193E-03 0.87213E-03 0.89888E-03 0.93798E-03 0.98920E-03 0.10445E-02 0.10914E-02 0.11180E-02
 0.11177E-02 0.10906E-02 0.10435E-02 0.98827E-03 0.93734E-03 0.89851E-03 0.87187E-03 0.85158E-03 0.83141E-03 0.80947E-03
 0.78864E-03 0.77336E-03 0.76604E-03 0.76562E-03 0.76865E-03 0.77127E-03 0.77111E-03 0.76827E-03 0.76526E-03 0.76592E-03
 0.75194E-03 0.76680E-03 0.78801E-03 0.81110E-03 0.83175E-03 0.84974E-03 0.87003E-03 0.89922E-03 0.94026E-03 0.98920E-03
 0.10363E-02 0.10702E-02 0.10823E-02 0.10695E-02 0.10353E-02 0.98825E-03 0.93974E-03 0.89922E-03 0.87037E-03 0.85008E-03
 0.83177E-03 0.81070E-03 0.78729E-03 0.76604E-03 0.75139E-03 0.74450E-03 0.74317E-03 0.74400E-03 0.74452E-03 0.74393E-03
 0.74316E-03 0.74474E-03 0.73136E-03 0.74525E-03 0.76626E-03 0.79068E-03 0.81302E-03 0.83080E-03 0.84718E-03 0.86854E-03
 0.89922E-03 0.93798E-03 0.97831E-03 0.10115E-02 0.10301E-02 0.10299E-02 0.10109E-02 0.97771E-03 0.93775E-03 0.89956E-03
 0.86936E-03 0.84818E-03 0.83159E-03 0.81332E-03 0.79043E-03 0.76562E-03 0.74450E-03 0.73073E-03 0.72380E-03 0.72090E-03
 0.71983E-03 0.71988E-03 0.72108E-03 0.72420E-03 0.71281E-03 0.72431E-03 0.74352E-03 0.76867E-03 0.79390E-03 0.81422E-03
 0.83019E-03 0.84717E-03 0.87003E-03 0.89888E-03 0.92943E-03 0.95592E-03 0.97365E-03 0.97982E-03 0.97355E-03 0.95586E-03
 0.92959E-03 0.89942E-03 0.87094E-03 0.84832E-03 0.83131E-03 0.81506E-03 0.79432E-03 0.76865E-03 0.74317E-03 0.72380E-03
 0.71232E-03 0.70638E-03 0.70328E-03 0.70228E-03 0.70348E-03 0.70674E-03 0.69948E-03 0.70656E-03 0.72089E-03 0.74376E-03
 0.77082E-03 0.79527E-03 0.81422E-03 0.83080E-03 0.84974E-03 0.87213E-03 0.89489E-03 0.91405E-03 0.92735E-03 0.93411E-03
 0.93423E-03 0.92769E-03 0.91455E-03 0.89549E-03 0.87278E-03 0.85041E-03 0.83146E-03 0.81486E-03 0.79585E-03 0.77127E-03
 0.74400E-03 0.72090E-03 0.70638E-03 0.69920E-03 0.69562E-03 0.69376E-03 0.69386E-03 0.69586E-03 0.69279E-03 0.69556E-03
 0.70298E-03 0.71935E-03 0.74403E-03 0.77082E-03 0.79390E-03 0.81302E-03 0.83175E-03 0.85193E-03 0.87157E-03 0.88766E-03
 0.89897E-03 0.90575E-03 0.90819E-03 0.90617E-03 0.89961E-03 0.88824E-03 0.87186E-03 0.85186E-03 0.83147E-03 0.81277E-03
 0.79389E-03 0.77111E-03 0.74452E-03 0.71983E-03 0.70328E-03 0.69562E-03 0.69270E-03 0.69096E-03 0.69021E-03 0.69106E-03
 0.68914E-03 0.69080E-03 0.69336E-03 0.70169E-03 0.71935E-03 0.74376E-03 0.76867E-03 0.79068E-03 0.81110E-03 0.83194E-03
 0.85239E-03 0.87033E-03 0.88493E-03 0.89618E-03 0.90285E-03 0.90309E-03 0.89673E-03 0.88544E-03 0.87040E-03 0.85185E-03
 0.83088E-03 0.80989E-03 0.78973E-03 0.76827E-03 0.74393E-03 0.71988E-03 0.70228E-03 0.69376E-03 0.69096E-03 0.68914E-03
 0.68738E-03 0.68740E-03 0.68352E-03 0.68725E-03 0.68989E-03 0.69336E-03 0.70298E-03 0.72089E-03 0.74352E-03 0.76626E-03
 0.78801E-03 0.81009E-03 0.83263E-03 0.85441E-03 0.87515E-03 0.89480E-03 0.91048E-03 0.91680E-03 0.91080E-03 0.89518E-03
 0.87521E-03 0.85387E-03 0.83147E-03 0.80858E-03 0.78656E-03 0.76526E-03 0.74316E-03 0.72108E-03 0.70348E-03 0.69386E-03
 0.69021E-03 0.68738E-03 0.68354E-03 0.68153E-03 0.67616E-03 0.68148E-03 0.68725E-03 0.69080E-03 0.69556E-03 0.70656E-03
 0.72431E-03 0.74525E-03 0.76680E-03 0.78917E-03 0.81286E-03 0.83731E-03 0.86259E-03 0.88937E-03 0.91498E-03 0.93162E-03
 0.93171E-03 0.91517E-03 0.88946E-03 0.86236E-03 0.83667E-03 0.81190E-03 0.78811E-03 0.76592E-03 0.74474E-03 0.72420E-03
 0.70674E-03 0.69586E-03 0.69106E-03 0.68740E-03 0.68153E-03 0.67617E-03 0.67258E-03 0.67616E-03 0.68352E-03 0.68914E-03
 0.69279E-03 0.69948E-03 0.71281E-03 0.73136E-03 0.75194E-03 0.77360E-03 0.79695E-03 0.82184E-03 0.84805E-03 0.87654E-03
 0.90657E-03 0.93161E-03 0.94163E-03 0.93161E-03 0.90657E-03 0.87654E-03 0.84805E-03 0.82184E-03 0.79695E-03 0.77360E-03
 0.75194E-03 0.73136E-03 0.71281E-03 0.69948E-03 0.69279E-03 0.68914E-03 0.68352E-03 0.67616E-03 0.67616E-03 0.67617E-03
 0.68153E-03 0.68740E-03 0.69106E-03 0.69586E-03 0.70674E-03 0.72420E-03 0.74474E-03 0.76592E-03 0.78811E-03 0.81190E-03
 0.83667E-03 0.86236E-03 0.88946E-03 0.91517E-03 0.93171E-03 0.93162E-03 0.91498E-03 0.88937E-03 0.86259E-03 0.83731E-03
 0.81286E-03 0.78917E-03 0.76680E-03 0.74525E-03 0.72431E-03 0.70656E-03 0.69556E-03 0.69080E-03 0.68725E-03 0.68148E-03
 0.68352E-03 0.68153E-03 0.68354E-03 0.68738E-03 0.69021E-03 0.69386E-03 0.70348E-03 0.72108E-03 0.74316E-03 0.76526E-03
 0.78656E-03 0.80858E-03 0.83147E-03 0.85387E-03 0.87521E-03 0.89518E-03 0.91080E-03 0.91680E-03 0.91048E-03 0.89480E-03
 0.87515E-03 0.85440E-03 0.83263E-03 0.81009E-03 0.78801E-03 0.76626E-03 0.74352E-03 0.72089E-03 0.70298E-03 0.69336E-03
 0.68989E-03 0.68725E-03 0.68914E-03 0.68740E-03 0.68738E-03 0.68914E-03 0.69096E-03 0.69376E-03 0.70228E-03 0.71988E-03
 0.74393E-03 0.76827E-03 0.78973E-03 0.80989E-03 0.83088E-03 0.85185E-03 0.87040E-03 0.88544E-03 0.89673E-03 0.90309E-03
 0.90285E-03 0.89618E-03 0.88493E-03 0.87033E-03 0.85239E-03 0.83194E-03 0.81110E-03 0.79068E-03 0.76867E-03 0.74376E-03
 0.71935E-03 0.70169E-03 0.69336E-03 0.69080E-03 0.69279E-03 0.69106E-03 0.69021E-03 0.69096E-03 0.69270E-03 0.69562E-03
 0.70328E-03 0.71983E-03 0.74452E-03 0.77111E-03 0.79389E-03 0.81277E-03 0.83147E-03 0.85186E-03 0.87186E-03 0.88824E-03
 0.89961E-03 0.90617E-03 0.90819E-03 0.90575E-03 0.89897E-03 0.88766E-03 0.87157E-03 0.85193E-03 0.83175E-03 0.81302E-03
 0.79390E-03 0.77082E-03 0.74403E-03 0.71935E-03 0.70298E-03 0.69556E-03 0.69948E-03 0.69586E-03 0.69386E-03 0.69376E-03
 0.69562E-03 0.69920E-03 0.70638E-03 0.72090E-03 0.74400E-03 0.77127E-03 0.79585E-03 0.81486E-03 0.83146E-03 0.85041E-03
 0.87278E-03 0.89549E-03 0.91455E-03 0.92769E-03 0.93423E-03 0.93411E-03 0.92735E-03 0.91405E-03 0.89489E-03 0.87213E-03
 0.84974E-03 0.83080E-03 0.81422E-03 0.79527E-03 0.77082E-03 0.74376E-03 0.72089E-03 0.70656E-03 0.71281E-03 0.70674E-03
 0.70348E-03 0.70228E-03 0.70328E-03 0.70638E-03 0.71232E-03 0.72380E-03 0.74317E-03 0.76865E-03 0.79432E-03 0.81506E-03
 0.83131E-03 0.84832E-03 0.87094E-03 0.89942E-03 0.92959E-03 0.95586E-03 0.97355E-03 0.97982E-03 0.97365E-03 0.95592E-03
 0.92943E-03 0.89888E-03 0.87003E-03 0.84718E-03 0.83019E-03 0.81422E-03 0.79390E-03 0.76867E-03 0.74352E-03 0.72431E-03
 0.73136E-03 0.72420E-03 0.72108E-03 0.71988E-03 0.71983E-03 0.72090E-03 0.72380E-03 0.73073E-03 0.74450E-03 0.76562E-03
 0.79043E-03 0.81332E-03 0.83159E-03 0.84818E-03 0.86936E-03 0.89956E-03 0.93775E-03 0.97771E-03 0.10109E-02 0.10299E-02
 0.10301E-02 0.10115E-02 0.97831E-03 0.93798E-03 0.89922E-03 0.86854E-03 0.84717E-03 0.83080E-03 0.81302E-03 0.79068E-03
 0.76626E-03 0.74525E-03 0.75194E-03 0.74474E-03 0.74316E-03 0.74393E-03 0.74452E-03 0.74400E-03 0.74317E-03 0.74450E-03
 0.75139E-03 0.76604E-03 0.78729E-03 0.81070E-03 0.83177E-03 0.85008E-03 0.87037E-03 0.89922E-03 0.93974E-03 0.98825E-03
 0.10353E-02 0.10695E-02 0.10823E-02 0.10702E-02 0.10363E-02 0.98920E-03 0.94026E-03 0.89922E-03 0.87003E-03 0.84974E-03
 0.83175E-03 0.81110E-03 0.78801E-03 0.76680E-03 0.77360E-03 0.76592E-03 0.76526E-03 0.76827E-03 0.77111E-03 0.77127E-03
 0.76865E-03 0.76562E-03 0.76604E-03 0.77336E-03 0.78864E-03 0.80947E-03 0.83141E-03 0.85158E-03 0.87187E-03 0.89851E-03
 0.93734E-03 0.98827E-03 0.10435E-02 0.10906E-02 0.11177E-02 0.11180E-02 0.10914E-02 0.10445E-02 0.98920E-03 0.93798E-03
 0.89888E-03 0.87213E-03 0.85193E-03 0.83194E-03 0.81009E-03 0.78917E-03 0.79695E-03 0.78811E-03 0.78656E-03 0.78973E-03
 0.79389E-03 0.79585E-03 0.79432E-03 0.79043E-03 0.78729E-03 0.78864E-03 0.79713E-03 0.81268E-03 0.83219E-03 0.85183E-03
 0.87098E-03 0.89432E-03 0.92888E-03 0.97776E-03 0.10358E-02 0.10909E-02 0.11302E-02 0.11444E-02 0.11304E-02 0.10914E-02
 0.10363E-02 0.97831E-03 0.92943E-03 0.89489E-03 0.87157E-03 0.85239E-03 0.83263E-03 0.81286E-03 0.82184E-03 0.81190E-03
 0.80858E-03 0.80989E-03 0.81277E-03 0.81486E-03 0.81506E-03 0.81332E-03 0.81070E-03 0.80947E-03 0.81268E-03 0.82235E-03
 0.83744E-03 0.85418E-03 0.86987E-03 0.88716E-03 0.91371E-03 0.95586E-03 0.10117E-02 0.10705E-02 0.11183E-02 0.11445E-02
 0.11444E-02 0.11180E-02 0.10702E-02 0.10115E-02 0.95592E-03 0.91405E-03 0.88766E-03 0.87033E-03 0.85441E-03 0.83731E-03
 0.84805E-03 0.83667E-03 0.83147E-03 0.83088E-03 0.83147E-03 0.83146E-03 0.83131E-03 0.83159E-03 0.83177E-03 0.83141E-03
 0.83219E-03 0.83744E-03 0.84867E-03 0.86289E-03 0.87511E-03 0.88471E-03 0.89885E-03 0.92759E-03 0.97435E-03 0.10311E-02
 0.10833E-02 0.11183E-02 0.11302E-02 0.11177E-02 0.10823E-02 0.10301E-02 0.97365E-03 0.92735E-03 0.89897E-03 0.88493E-03
 0.87515E-03 0.86259E-03 0.87654E-03 0.86236E-03 0.85387E-03 0.85185E-03 0.85186E-03 0.85041E-03 0.84832E-03 0.84818E-03
 0.85008E-03 0.85158E-03 0.85183E-03 0.85418E-03 0.86289E-03 0.87706E-03 0.88968E-03 0.89488E-03 0.89619E-03 0.90598E-03
 0.93477E-03 0.98091E-03 0.10311E-02 0.10705E-02 0.10909E-02 0.10906E-02 0.10695E-02 0.10299E-02 0.97982E-03 0.93411E-03
 0.90575E-03 0.89618E-03 0.89480E-03 0.88937E-03 0.90657E-03 0.88946E-03 0.87521E-03 0.87040E-03 0.87186E-03 0.87278E-03
 0.87094E-03 0.86936E-03 0.87037E-03 0.87187E-03 0.87098E-03 0.86987E-03 0.87511E-03 0.88968E-03 0.90688E-03 0.91518E-03
 0.91054E-03 0.90289E-03 0.90842E-03 0.93477E-03 0.97435E-03 0.10117E-02 0.10358E-02 0.10435E-02 0.10353E-02 0.10109E-02
 0.97355E-03 0.93423E-03 0.90819E-03 0.90285E-03 0.91048E-03 0.91498E-03 0.93161E-03 0.91517E-03 0.89518E-03 0.88544E-03
 0.88824E-03 0.89549E-03 0.89942E-03 0.89956E-03 0.89922E-03 0.89851E-03 0.89432E-03 0.88716E-03 0.88471E-03 0.89488E-03
 0.91518E-03 0.93173E-03 0.93166E-03 0.91670E-03 0.90289E-03 0.90598E-03 0.92759E-03 0.95586E-03 0.97776E-03 0.98827E-03
 0.98825E-03 0.97771E-03 0.95586E-03 0.92769E-03 0.90617E-03 0.90309E-03 0.91680E-03 0.93162E-03 0.16959E-02 0.16758E-02
 0.16242E-02 0.15607E-02 0.15040E-02 0.14631E-02 0.14379E-02 0.14246E-02 0.14204E-02 0.14246E-02 0.14379E-02 0.14631E-02
 0.15040E-02 0.15607E-02 0.16242E-02 0.16758E-02 0.16959E-02 0.16758E-02 0.16242E-02 0.15607E-02 0.15040E-02 0.14631E-02
 0.14379E-02 0.14246E-02 0.14204E-02 0.14246E-02 0.14379E-02 0.14631E-02 0.15040E-02 0.15607E-02 0.16242E-02 0.16758E-02
 0.16783E-02 0.16758E-02 0.16376E-02 0.15792E-02 0.15206E-02 0.14752E-02 0.14459E-02 0.14294E-02 0.14219E-02 0.14219E-02
 0.14294E-02 0.14459E-02 0.14752E-02 0.15206E-02 0.15792E-02 0.16376E-02 0.16758E-02 0.16783E-02 0.16441E-02 0.15875E-02
 0.15283E-02 0.14807E-02 0.14490E-02 0.14310E-02 0.14231E-02 0.14230E-02 0.14310E-02 0.14490E-02 0.14807E-02 0.15283E-02
 0.15875E-02 0.16441E-02 0.16303E-02 0.16441E-02 0.16242E-02 0.15792E-02 0.15268E-02 0.14825E-02 0.14530E-02 0.14363E-02
 0.14281E-02 0.14256E-02 0.14281E-02 0.14363E-02 0.14530E-02 0.14825E-02 0.15268E-02 0.15792E-02 0.16242E-02 0.16441E-02
 0.16303E-02 0.15889E-02 0.15360E-02 0.14881E-02 0.14539E-02 0.14339E-02 0.14243E-02 0.14215E-02 0.14242E-02 0.14338E-02
 0.14539E-02 0.14881E-02 0.15360E-02 0.15889E-02 0.15635E-02 0.15889E-02 0.15875E-02 0.15607E-02 0.15206E-02 0.14825E-02
 0.14558E-02 0.14414E-02 0.14351E-02 0.14329E-02 0.14329E-02 0.14351E-02 0.14414E-02 0.14558E-02 0.14825E-02 0.15206E-02
 0.15607E-02 0.15875E-02 0.15889E-02 0.15635E-02 0.15216E-02 0.14781E-02 0.14446E-02 0.14247E-02 0.14158E-02 0.14130E-02
 0.14130E-02 0.14158E-02 0.14247E-02 0.14446E-02 0.14781E-02 0.15216E-02 0.14895E-02 0.15216E-02 0.15360E-02 0.15283E-02
 0.15040E-02 0.14752E-02 0.14530E-02 0.14414E-02 0.14381E-02 0.14385E-02 0.14390E-02 0.14385E-02 0.14381E-02 0.14414E-02
 0.14530E-02 0.14752E-02 0.15040E-02 0.15283E-02 0.15360E-02 0.15216E-02 0.14895E-02 0.14514E-02 0.14193E-02 0.13995E-02
 0.13916E-02 0.13906E-02 0.13910E-02 0.13906E-02 0.13917E-02 0.13996E-02 0.14193E-02 0.14514E-02 0.14163E-02 0.14514E-02
 0.14781E-02 0.14881E-02 0.14807E-02 0.14631E-02 0.14459E-02 0.14363E-02 0.14351E-02 0.14385E-02 0.14416E-02 0.14416E-02
 0.14385E-02 0.14351E-02 0.14363E-02 0.14459E-02 0.14631E-02 0.14807E-02 0.14881E-02 0.14781E-02 0.14514E-02 0.14163E-02
 0.13837E-02 0.13617E-02 0.13522E-02 0.13515E-02 0.13534E-02 0.13534E-02 0.13515E-02 0.13522E-02 0.13617E-02 0.13837E-02
 0.13476E-02 0.13837E-02 0.14193E-02 0.14446E-02 0.14539E-02 0.14490E-02 0.14379E-02 0.14294E-02 0.14281E-02 0.14329E-02
 0.14390E-02 0.14416E-02 0.14390E-02 0.14329E-02 0.14281E-02 0.14294E-02 0.14379E-02 0.14490E-02 0.14539E-02 0.14446E-02
 0.14193E-02 0.13837E-02 0.13476E-02 0.13198E-02 0.13043E-02 0.12996E-02 0.13003E-02 0.13013E-02 0.13003E-02 0.12996E-02
 0.13043E-02 0.13198E-02 0.12831E-02 0.13198E-02 0.13617E-02 0.13996E-02 0.14247E-02 0.14339E-02 0.14310E-02 0.14245E-02
 0.14219E-02 0.14256E-02 0.14329E-02 0.14385E-02 0.14385E-02 0.14329E-02 0.14256E-02 0.14219E-02 0.14246E-02 0.14310E-02
 0.14339E-02 0.14247E-02 0.13995E-02 0.13617E-02 0.13198E-02 0.12831E-02 0.12574E-02 0.12436E-02 0.12383E-02 0.12371E-02
 0.12371E-02 0.12383E-02 0.12436E-02 0.12574E-02 0.12193E-02 0.12574E-02 0.13043E-02 0.13522E-02 0.13916E-02 0.14158E-02
 0.14243E-02 0.14230E-02 0.14204E-02 0.14219E-02 0.14281E-02 0.14351E-02 0.14381E-02 0.14351E-02 0.14281E-02 0.14219E-02
 0.14204E-02 0.14231E-02 0.14243E-02 0.14158E-02 0.13916E-02 0.13522E-02 0.13043E-02 0.12574E-02 0.12193E-02 0.11928E-02
 0.11770E-02 0.11690E-02 0.11666E-02 0.11690E-02 0.11770E-02 0.11928E-02 0.11529E-02 0.11928E-02 0.12436E-02 0.12996E-02
 0.13515E-02 0.13906E-02 0.14130E-02 0.14215E-02 0.14230E-02 0.14246E-02 0.14294E-02 0.14363E-02 0.14414E-02 0.14414E-02
 0.14363E-02 0.14294E-02 0.14246E-02 0.14230E-02 0.14215E-02 0.14130E-02 0.13906E-02 0.13515E-02 0.12996E-02 0.12436E-02
 0.11928E-02 0.11529E-02 0.11248E-02 0.11071E-02 0.10984E-02 0.10984E-02 0.11071E-02 0.11248E-02 0.10852E-02 0.11248E-02
 0.11770E-02 0.12383E-02 0.13003E-02 0.13534E-02 0.13910E-02 0.14130E-02 0.14243E-02 0.14310E-02 0.14379E-02 0.14459E-02
 0.14530E-02 0.14558E-02 0.14530E-02 0.14459E-02 0.14379E-02 0.14310E-02 0.14242E-02 0.14130E-02 0.13910E-02 0.13534E-02
 0.13003E-02 0.12383E-02 0.11770E-02 0.11248E-02 0.10852E-02 0.10578E-02 0.10414E-02 0.10358E-02 0.10414E-02 0.10578E-02
 0.10222E-02 0.10578E-02 0.11071E-02 0.11690E-02 0.12371E-02 0.13013E-02 0.13534E-02 0.13906E-02 0.14158E-02 0.14338E-02
 0.14490E-02 0.14631E-02 0.14752E-02 0.14825E-02 0.14825E-02 0.14752E-02 0.14631E-02 0.14490E-02 0.14338E-02 0.14158E-02
 0.13906E-02 0.13534E-02 0.13013E-02 0.12371E-02 0.11690E-02 0.11071E-02 0.10578E-02 0.10222E-02 0.99886E-03 0.98696E-03
 0.98696E-03 0.99885E-03 0.96959E-03 0.99885E-03 0.10414E-02 0.10984E-02 0.11666E-02 0.12371E-02 0.13003E-02 0.13515E-02
 0.13916E-02 0.14247E-02 0.14539E-02 0.14807E-02 0.15040E-02 0.15206E-02 0.15268E-02 0.15206E-02 0.15040E-02 0.14807E-02