   2   2   0   0
  0.1673183E+02  0.2472373E-09  0.2472373E-09  0.6321422E-09  0.5000000E-15
  1.000000000000000E-004
  CAR 
 unknown system                          
     24.98794259    -21.04716970  301     -1.67638042      1.00000000
    -21.047  0.0000E+00  0.0000E+00  0.0000E+00  0.0000E+00
    -20.894  0.0000E+00  0.0000E+00  0.0000E+00  0.0000E+00
    -20.740  0.0000E+00  0.0000E+00  0.0000E+00  0.0000E+00
    -20.587 -0.9038E-29 -0.1119E-28 -0.1387E-29 -0.1717E-29
    -20.433 -0.1273E-23 -0.1545E-23 -0.1954E-24 -0.2370E-24
    -20.280 -0.5468E-19 -0.6499E-19 -0.8390E-20 -0.9972E-20
    -20.126 -0.6910E-15 -0.8084E-15 -0.1060E-15 -0.1241E-15
    -19.973 -0.2714E-11 -0.3096E-11 -0.4166E-12 -0.4752E-12
    -19.820 -0.3181E-08 -0.3554E-08 -0.4886E-09 -0.5458E-09
    -19.666 -0.1100E-05 -0.1203E-05 -0.1692E-06 -0.1851E-06
    -19.513 -0.1085E-03 -0.1160E-03 -0.1681E-04 -0.1799E-04
    -19.359 -0.2785E-02 -0.2906E-02 -0.4441E-03 -0.4639E-03
    -19.206 -0.1143E-01 -0.1136E-01 -0.2199E-02 -0.2207E-02
    -19.052  0.6692E-01  0.6995E-01  0.8070E-02  0.8526E-02
    -18.899  0.2392E+00  0.2402E+00  0.4477E-01  0.4539E-01
    -18.745  0.1270E+00  0.1234E+00  0.6426E-01  0.6433E-01
    -18.592 -0.5625E-02 -0.6259E-02  0.6340E-01  0.6337E-01
    -18.439 -0.5526E-02 -0.5342E-02  0.6255E-01  0.6255E-01
    -18.285 -0.3421E-03 -0.3220E-03  0.6250E-01  0.6250E-01
    -18.132 -0.7901E-04 -0.8453E-04  0.6249E-01  0.6249E-01
    -17.978 -0.3834E-02 -0.4050E-02  0.6190E-01  0.6187E-01
    -17.825 -0.4586E-01 -0.4706E-01  0.5486E-01  0.5464E-01
    -17.671  0.2545E-01  0.3269E-01  0.5877E-01  0.5966E-01
    -17.518  0.9908E+00  0.1011E+01  0.2108E+00  0.2148E+00
    -17.364  0.1326E+01  0.1313E+01  0.4143E+00  0.4163E+00
    -17.211  0.2276E+00  0.2138E+00  0.4493E+00  0.4491E+00
    -17.057 -0.6617E-01 -0.6545E-01  0.4391E+00  0.4390E+00
    -16.904 -0.1027E-01 -0.9792E-02  0.4375E+00  0.4375E+00
    -16.751 -0.3078E-03 -0.2869E-03  0.4375E+00  0.4375E+00
    -16.597 -0.2467E-05 -0.2251E-05  0.4375E+00  0.4375E+00
    -16.444 -0.5692E-08 -0.5086E-08  0.4375E+00  0.4375E+00
    -16.290 -0.3885E-11 -0.3402E-11  0.4375E+00  0.4375E+00
    -16.137 -0.1085E-14 -0.5426E-15  0.4375E+00  0.4375E+00
    -15.983 -0.2707E-17 -0.3172E-17  0.4375E+00  0.4375E+00
    -15.830 -0.2661E-13 -0.3058E-13  0.4375E+00  0.4375E+00
    -15.676 -0.8070E-10 -0.9096E-10  0.4375E+00  0.4375E+00
    -15.523 -0.7312E-07 -0.8081E-07  0.4375E+00  0.4375E+00
    -15.370 -0.1944E-04 -0.2106E-04  0.4375E+00  0.4375E+00
    -15.216 -0.1458E-02 -0.1546E-02  0.4373E+00  0.4373E+00
    -15.063 -0.2732E-01 -0.2827E-01  0.4331E+00  0.4329E+00
    -14.909 -0.5164E-01 -0.4912E-01  0.4252E+00  0.4254E+00
    -14.756  0.6445E+00  0.6643E+00  0.5241E+00  0.5273E+00
    -14.602  0.1460E+01  0.1458E+01  0.7482E+00  0.7510E+00
    -14.449  0.5056E+00  0.4873E+00  0.8257E+00  0.8258E+00
    -14.295 -0.6478E-01 -0.6587E-01  0.8158E+00  0.8157E+00
    -14.142 -0.3082E-01 -0.3043E-01  0.8111E+00  0.8110E+00
    -13.988 -0.3403E-01 -0.3349E-01  0.8059E+00  0.8059E+00
    -13.835  0.2362E+00  0.2455E+00  0.8421E+00  0.8435E+00
    -13.682  0.7275E+00  0.7291E+00  0.9537E+00  0.9554E+00
    -13.528  0.3403E+00  0.3301E+00  0.1006E+01  0.1006E+01
    -13.375 -0.2345E-01 -0.2483E-01  0.1002E+01  0.1002E+01
    -13.221 -0.1503E-01 -0.1456E-01  0.1000E+01  0.1000E+01
    -13.068 -0.1166E-01 -0.1198E-01  0.9983E+00  0.9982E+00
    -12.914 -0.3168E-01 -0.3108E-01  0.9934E+00  0.9934E+00
    -12.761  0.2607E+00  0.2690E+00  0.1033E+01  0.1035E+01
    -12.607  0.7311E+00  0.7318E+00  0.1146E+01  0.1147E+01
    -12.454  0.3139E+00  0.3052E+00  0.1194E+01  0.1194E+01
    -12.300 -0.2682E-01 -0.2778E-01  0.1190E+01  0.1190E+01
    -12.147 -0.1326E-01 -0.1285E-01  0.1188E+01  0.1188E+01
    -11.994 -0.6930E-03 -0.6573E-03  0.1188E+01  0.1188E+01
    -11.840 -0.9077E-05 -0.8450E-05  0.1188E+01  0.1188E+01
    -11.687 -0.3356E-07 -0.3069E-07  0.1188E+01  0.1188E+01
    -11.533 -0.3643E-10 -0.3274E-10  0.1188E+01  0.1188E+01
    -11.380 -0.1194E-13 -0.1058E-13  0.1188E+01  0.1188E+01
    -11.226 -0.2490E-15 -0.2852E-15  0.1188E+01  0.1188E+01
    -11.073 -0.1383E-11 -0.1556E-11  0.1187E+01  0.1187E+01
    -10.919 -0.2369E-08 -0.2620E-08  0.1187E+01  0.1187E+01
    -10.766 -0.1204E-05 -0.1308E-05  0.1187E+01  0.1187E+01
    -10.613 -0.1770E-03 -0.1887E-03  0.1187E+01  0.1187E+01
    -10.459 -0.7060E-02 -0.7375E-02  0.1186E+01  0.1186E+01
    -10.306 -0.5931E-01 -0.6022E-01  0.1177E+01  0.1177E+01
    -10.152  0.1308E+00  0.1406E+00  0.1197E+01  0.1199E+01
     -9.999  0.1210E+01  0.1224E+01  0.1383E+01  0.1387E+01
     -9.845  0.1141E+01  0.1125E+01  0.1558E+01  0.1559E+01
     -9.692  0.9009E-01  0.8171E-01  0.1572E+01  0.1572E+01
     -9.538 -0.5501E-01 -0.5400E-01  0.1563E+01  0.1563E+01
     -9.385 -0.5787E-02 -0.5530E-02  0.1563E+01  0.1563E+01
     -9.231 -0.1328E-03 -0.1244E-03  0.1563E+01  0.1563E+01
     -9.078 -0.2403E-04 -0.2539E-04  0.1562E+01  0.1562E+01
     -8.925 -0.1660E-02 -0.1735E-02  0.1562E+01  0.1562E+01
     -8.771 -0.2945E-01 -0.3019E-01  0.1558E+01  0.1558E+01
     -8.618 -0.4577E-01 -0.4355E-01  0.1551E+01  0.1551E+01
     -8.464  0.6885E+00  0.7035E+00  0.1656E+01  0.1659E+01
     -8.311  0.1453E+01  0.1450E+01  0.1879E+01  0.1881E+01
     -8.157  0.4653E+00  0.4520E+00  0.1951E+01  0.1951E+01
     -8.004 -0.6651E-01 -0.6708E-01  0.1941E+01  0.1940E+01
     -7.850 -0.1931E-01 -0.1875E-01  0.1938E+01  0.1938E+01
     -7.697 -0.8317E-03 -0.7961E-03  0.1937E+01  0.1937E+01
     -7.544 -0.6989E-03 -0.7722E-03  0.1937E+01  0.1937E+01
     -7.390 -0.1123E-01 -0.1178E-01  0.1936E+01  0.1936E+01
     -7.237 -0.4146E-01 -0.4006E-01  0.1929E+01  0.1929E+01
     -7.083  0.1841E+00  0.1960E+00  0.1958E+01  0.1960E+01
     -6.930  0.1200E+01  0.1211E+01  0.2142E+01  0.2145E+01
     -6.776  0.1374E+01  0.1360E+01  0.2353E+01  0.2354E+01
     -6.623  0.2259E+00  0.2153E+00  0.2387E+01  0.2387E+01
     -6.469 -0.6851E-01 -0.6784E-01  0.2377E+01  0.2377E+01
     -6.316 -0.1555E-01 -0.1532E-01  0.2374E+01  0.2374E+01
     -6.162 -0.3307E-01 -0.3329E-01  0.2369E+01  0.2369E+01
     -6.009  0.1073E+00  0.1117E+00  0.2386E+01  0.2386E+01
     -5.856  0.6549E+00  0.6589E+00  0.2486E+01  0.2487E+01
     -5.702  0.4717E+00  0.4631E+00  0.2559E+01  0.2558E+01
     -5.549 -0.1771E-01 -0.1195E-01  0.2556E+01  0.2557E+01
     -5.395  0.7383E+00  0.7801E+00  0.2669E+01  0.2676E+01
     -5.242  0.1433E+01  0.1419E+01  0.2889E+01  0.2894E+01
     -5.088  0.4012E+00  0.3671E+00  0.2951E+01  0.2950E+01
     -4.935 -0.8301E-01 -0.8387E-01  0.2938E+01  0.2938E+01
     -4.781 -0.8583E-01 -0.8450E-01  0.2925E+01  0.2925E+01
     -4.628  0.3417E+00  0.3522E+00  0.2977E+01  0.2979E+01
     -4.475  0.1409E+01  0.1414E+01  0.3193E+01  0.3196E+01
     -4.321  0.8349E+00  0.8217E+00  0.3321E+01  0.3322E+01
     -4.168 -0.1882E-01 -0.2177E-01  0.3319E+01  0.3318E+01
     -4.014 -0.3701E-01 -0.3630E-01  0.3313E+01  0.3313E+01
     -3.861 -0.2511E-02 -0.2421E-02  0.3313E+01  0.3313E+01
     -3.707 -0.4092E-04 -0.3891E-04  0.3313E+01  0.3313E+01
     -3.554 -0.1861E-06 -0.1747E-06  0.3313E+01  0.3313E+01
     -3.400 -0.3903E-08 -0.4136E-08  0.3312E+01  0.3312E+01
     -3.247 -0.1403E-05 -0.1481E-05  0.3312E+01  0.3312E+01
     -3.093 -0.1543E-03 -0.1608E-03  0.3312E+01  0.3312E+01
     -2.940 -0.4481E-02 -0.4602E-02  0.3312E+01  0.3312E+01
     -2.787 -0.2344E-01 -0.2354E-01  0.3308E+01  0.3308E+01
     -2.633  0.9176E-01  0.9375E-01  0.3322E+01  0.3323E+01
     -2.480  0.3957E+00  0.3975E+00  0.3383E+01  0.3384E+01
     -2.326  0.6085E+00  0.6373E+00  0.3476E+01  0.3481E+01
     -2.173  0.1370E+01  0.1386E+01  0.3687E+01  0.3694E+01
     -2.019  0.8629E+00  0.8282E+00  0.3819E+01  0.3821E+01
     -1.866  0.4838E+00  0.4946E+00  0.3893E+01  0.3897E+01
     -1.712  0.6237E+00  0.6118E+00  0.3989E+01  0.3991E+01
     -1.559  0.1101E+00  0.9644E-01  0.4006E+01  0.4006E+01
     -1.406 -0.3308E-01 -0.3229E-01  0.4001E+01  0.4001E+01
     -1.252 -0.5097E-02 -0.4624E-02  0.4000E+01  0.4000E+01
     -1.099 -0.1523E-03 -0.1317E-03  0.4000E+01  0.4000E+01
     -0.945 -0.1217E-05 -0.1007E-05  0.4000E+01  0.4000E+01
     -0.792 -0.2798E-08 -0.2220E-08  0.4000E+01  0.4000E+01
     -0.638 -0.1904E-11 -0.1449E-11  0.4000E+01  0.4000E+01
     -0.485 -0.2713E-15 -0.2713E-15  0.4000E+01  0.4000E+01
     -0.331  0.0000E+00  0.0000E+00  0.4000E+01  0.4000E+01
     -0.178  0.0000E+00  0.0000E+00  0.4000E+01  0.4000E+01
     -0.024  0.0000E+00  0.0000E+00  0.4000E+01  0.4000E+01
      0.129  0.0000E+00  0.0000E+00  0.4000E+01  0.4000E+01
      0.282  0.0000E+00  0.0000E+00  0.4000E+01  0.4000E+01
      0.436  0.0000E+00 -0.1756E-32  0.4000E+01  0.4000E+01
      0.589 -0.3988E-27 -0.6009E-27  0.4000E+01  0.4000E+01
      0.743 -0.4336E-22 -0.6278E-22  0.4000E+01  0.4000E+01
      0.896 -0.1436E-17 -0.1998E-17  0.4000E+01  0.4000E+01
      1.050 -0.1404E-13 -0.1869E-13  0.4000E+01  0.4000E+01
      1.203 -0.4220E-10 -0.5413E-10  0.4000E+01  0.4000E+01
      1.357 -0.3796E-07 -0.4673E-07  0.4000E+01  0.4000E+01
      1.510 -0.1002E-04 -0.1183E-04  0.4000E+01  0.4000E+01
      1.663 -0.7452E-03 -0.8421E-03  0.4000E+01  0.4000E+01
      1.817 -0.1384E-01 -0.1484E-01  0.3998E+01  0.3998E+01
      1.970 -0.2536E-01 -0.2253E-01  0.3994E+01  0.3994E+01
      2.124  0.3260E+00  0.3467E+00  0.4044E+01  0.4047E+01
      2.277  0.7297E+00  0.7263E+00  0.4156E+01  0.4159E+01
      2.431  0.2494E+00  0.2305E+00  0.4194E+01  0.4194E+01
      2.584 -0.3240E-01 -0.3337E-01  0.4189E+01  0.4189E+01
      2.738 -0.1130E-01 -0.1076E-01  0.4187E+01  0.4187E+01
      2.891 -0.2145E-01 -0.2406E-01  0.4184E+01  0.4184E+01
      3.045 -0.7313E-01 -0.6701E-01  0.4173E+01  0.4173E+01
      3.198  0.4940E+00  0.5529E+00  0.4249E+01  0.4258E+01
      3.351  0.1654E+01  0.1659E+01  0.4502E+01  0.4513E+01
      3.505  0.8743E+00  0.8127E+00  0.4637E+01  0.4637E+01
      3.658 -0.3494E-01 -0.4366E-01  0.4631E+01  0.4631E+01
      3.812 -0.3841E-01 -0.3543E-01  0.4625E+01  0.4625E+01
      3.965 -0.2464E-02 -0.2153E-02  0.4625E+01  0.4625E+01
      4.119 -0.3869E-04 -0.3233E-04  0.4625E+01  0.4625E+01
      4.272 -0.1712E-06 -0.1375E-06  0.4625E+01  0.4625E+01
      4.426 -0.2114E-06 -0.3936E-06  0.4625E+01  0.4625E+01
      4.579 -0.4522E-04 -0.7389E-04  0.4625E+01  0.4625E+01
      4.732 -0.2699E-02 -0.3835E-02  0.4625E+01  0.4624E+01
      4.886 -0.3845E-01 -0.4586E-01  0.4619E+01  0.4617E+01
      5.039 -0.1261E-01  0.2549E-01  0.4617E+01  0.4621E+01
      5.193  0.8613E+00  0.9910E+00  0.4749E+01  0.4773E+01
      5.346  0.1398E+01  0.1326E+01  0.4963E+01  0.4977E+01
      5.500  0.3218E+00  0.2275E+00  0.5013E+01  0.5012E+01
      5.653 -0.6897E-01 -0.6616E-01  0.5002E+01  0.5002E+01
      5.807 -0.1364E-01 -0.1026E-01  0.5000E+01  0.5000E+01
      5.960 -0.4743E-03 -0.3077E-03  0.5000E+01  0.5000E+01
      6.114 -0.4345E-05 -0.2466E-05  0.5000E+01  0.5000E+01
      6.267 -0.1140E-07 -0.5688E-08  0.5000E+01  0.5000E+01
      6.420 -0.8839E-11 -0.3882E-11  0.5000E+01  0.5000E+01
      6.574 -0.6418E-13 -0.8601E-13  0.5000E+01  0.5000E+01
      6.727 -0.1674E-09 -0.2191E-09  0.5000E+01  0.5000E+01
      6.881 -0.1350E-06 -0.1688E-06  0.5000E+01  0.5000E+01
      7.034 -0.3203E-04 -0.3823E-04  0.5000E+01  0.5000E+01
      7.188 -0.2154E-02 -0.2448E-02  0.5000E+01  0.5000E+01
      7.341 -0.3656E-01 -0.3921E-01  0.4994E+01  0.4994E+01
      7.495 -0.6128E-01 -0.5271E-01  0.4985E+01  0.4986E+01
      7.648  0.8203E+00  0.8732E+00  0.5111E+01  0.5120E+01
      7.802  0.2019E+01  0.2014E+01  0.5420E+01  0.5429E+01
      7.955  0.9841E+00  0.9346E+00  0.5571E+01  0.5572E+01
      8.108 -0.5186E-01 -0.5987E-01  0.5563E+01  0.5563E+01
      8.262 -0.3807E-01 -0.2683E-01  0.5558E+01  0.5559E+01
      8.415  0.8842E+00  0.9103E+00  0.5693E+01  0.5698E+01
      8.569  0.1577E+01  0.1566E+01  0.5935E+01  0.5939E+01
      8.722  0.6705E+00  0.6502E+00  0.6038E+01  0.6038E+01
      8.876  0.3559E+00  0.3500E+00  0.6093E+01  0.6092E+01
      9.029  0.3198E+00  0.3920E+00  0.6142E+01  0.6152E+01
      9.183  0.1216E+01  0.1303E+01  0.6328E+01  0.6352E+01
      9.336  0.1103E+01  0.9864E+00  0.6498E+01  0.6504E+01
      9.489  0.7456E-01  0.2625E-01  0.6509E+01  0.6508E+01
      9.643 -0.5398E-01 -0.4699E-01  0.6501E+01  0.6500E+01
      9.796 -0.2454E-01 -0.2474E-01  0.6497E+01  0.6497E+01
      9.950 -0.6673E-01 -0.6464E-01  0.6487E+01  0.6487E+01
     10.103  0.4632E+00  0.5021E+00  0.6558E+01  0.6564E+01
     10.257  0.1453E+01  0.1460E+01  0.6781E+01  0.6788E+01
     10.410  0.6908E+00  0.6482E+00  0.6887E+01  0.6887E+01
     10.564 -0.4729E-01 -0.5389E-01  0.6880E+01  0.6879E+01
     10.717 -0.5359E-01 -0.5617E-01  0.6871E+01  0.6870E+01
     10.871 -0.1283E-01  0.1282E-01  0.6869E+01  0.6872E+01
     11.024  0.4882E+00  0.5719E+00  0.6944E+01  0.6960E+01
     11.177  0.1122E+01  0.1114E+01  0.7116E+01  0.7131E+01
     11.331  0.8116E+00  0.7519E+00  0.7241E+01  0.7246E+01
     11.484  0.2757E+00  0.2720E+00  0.7283E+01  0.7288E+01
     11.638  0.1260E+00  0.1042E+00  0.7303E+01  0.7304E+01
     11.791  0.8278E-01  0.8381E-01  0.7315E+01  0.7317E+01
     11.945  0.1051E+01  0.1087E+01  0.7477E+01  0.7484E+01
     12.098  0.1523E+01  0.1502E+01  0.7710E+01  0.7714E+01
     12.252  0.3260E+00  0.2983E+00  0.7760E+01  0.7760E+01
     12.405 -0.1413E+00 -0.1397E+00  0.7739E+01  0.7739E+01
     12.558  0.4612E+00  0.4827E+00  0.7810E+01  0.7813E+01
     12.712  0.1454E+01  0.1460E+01  0.8033E+01  0.8037E+01
     12.865  0.1017E+01  0.1011E+01  0.8189E+01  0.8192E+01
     13.019  0.1260E+01  0.1265E+01  0.8382E+01  0.8386E+01
     13.172  0.1109E+01  0.1140E+01  0.8552E+01  0.8561E+01
     13.326  0.9830E+00  0.1137E+01  0.8703E+01  0.8735E+01
     13.479  0.1302E+01  0.1196E+01  0.8903E+01  0.8919E+01
     13.633  0.2210E+00  0.1066E+00  0.8937E+01  0.8935E+01
     13.786  0.4248E+00  0.4440E+00  0.9002E+01  0.9003E+01
     13.940  0.1418E+01  0.1423E+01  0.9220E+01  0.9222E+01
     14.093  0.7088E+00  0.7027E+00  0.9328E+01  0.9330E+01
     14.246  0.5377E+00  0.5500E+00  0.9411E+01  0.9414E+01
     14.400  0.5600E+00  0.5460E+00  0.9497E+01  0.9498E+01
     14.553  0.5326E-01  0.4505E-01  0.9505E+01  0.9505E+01
     14.707 -0.2861E-01 -0.2769E-01  0.9501E+01  0.9500E+01
     14.860 -0.3224E-02 -0.2970E-02  0.9500E+01  0.9500E+01
     15.014 -0.2017E-02 -0.2187E-02  0.9500E+01  0.9500E+01
     15.167 -0.3216E-01 -0.3377E-01  0.9495E+01  0.9494E+01
     15.321 -0.3732E-01 -0.3169E-01  0.9489E+01  0.9490E+01
     15.474  0.7368E+00  0.7672E+00  0.9602E+01  0.9607E+01
     15.627  0.1372E+01  0.1358E+01  0.9813E+01  0.9816E+01
     15.781  0.4601E+00  0.4585E+00  0.9883E+01  0.9886E+01
     15.934  0.1425E+01  0.1490E+01  0.1010E+02  0.1011E+02
     16.088  0.1965E+01  0.1921E+01  0.1040E+02  0.1041E+02
     16.241  0.3308E+00  0.2839E+00  0.1045E+02  0.1045E+02
     16.395 -0.1549E+00 -0.1608E+00  0.1043E+02  0.1043E+02
     16.548  0.8475E-01  0.1840E+00  0.1044E+02  0.1046E+02
     16.702  0.1159E+01  0.1296E+01  0.1062E+02  0.1066E+02
     16.855  0.1192E+01  0.1035E+01  0.1080E+02  0.1081E+02
     17.009  0.1197E+00  0.4169E-01  0.1082E+02  0.1082E+02
     17.162 -0.6192E-01 -0.5409E-01  0.1081E+02  0.1081E+02
     17.315 -0.5169E-01 -0.5855E-01  0.1081E+02  0.1080E+02
     17.469  0.1991E-01  0.8299E-01  0.1081E+02  0.1082E+02
     17.622  0.9686E+00  0.1118E+01  0.1096E+02  0.1099E+02
     17.776  0.1301E+01  0.1188E+01  0.1116E+02  0.1117E+02
     17.929  0.4095E+00  0.3763E+00  0.1122E+02  0.1123E+02
     18.083  0.6380E+00  0.6678E+00  0.1132E+02  0.1133E+02
     18.236  0.4064E+00  0.3313E+00  0.1138E+02  0.1138E+02
     18.390 -0.9839E-02 -0.2388E-01  0.1138E+02  0.1138E+02
     18.543 -0.1848E-01 -0.1445E-01  0.1138E+02  0.1138E+02
     18.696 -0.1252E-02 -0.8029E-03  0.1138E+02  0.1138E+02
     18.850 -0.2039E-04 -0.1108E-04  0.1138E+02  0.1138E+02
     19.003 -0.9265E-07 -0.4309E-07  0.1138E+02  0.1138E+02
     19.157 -0.1231E-09 -0.4912E-10  0.1138E+02  0.1138E+02
     19.310 -0.1591E-11 -0.8952E-11  0.1137E+02  0.1137E+02
     19.464 -0.2760E-08 -0.1127E-07  0.1137E+02  0.1137E+02
     19.617 -0.1466E-05 -0.4295E-05  0.1137E+02  0.1137E+02
     19.771 -0.2257E-03 -0.4837E-03  0.1137E+02  0.1137E+02
     19.924 -0.9466E-02 -0.1501E-01  0.1137E+02  0.1137E+02
     20.078 -0.8534E-01 -0.9292E-01  0.1136E+02  0.1136E+02
     20.231  0.1604E+00  0.3196E+00  0.1139E+02  0.1141E+02
     20.384  0.1756E+01  0.1913E+01  0.1165E+02  0.1170E+02
     20.538  0.1771E+01  0.1540E+01  0.1193E+02  0.1194E+02
     20.691  0.1691E+00  0.8118E-01  0.1195E+02  0.1195E+02
     20.845 -0.8626E-01 -0.7266E-01  0.1194E+02  0.1194E+02
     20.998 -0.9739E-02 -0.7059E-02  0.1194E+02  0.1194E+02
     21.152 -0.2352E-03 -0.1561E-03  0.1194E+02  0.1194E+02
     21.305 -0.1546E-05 -0.9590E-06  0.1194E+02  0.1194E+02
     21.459 -0.2943E-08 -0.1727E-08  0.1194E+02  0.1194E+02
     21.612 -0.1663E-11 -0.9306E-12  0.1194E+02  0.1194E+02
     21.765 -0.8635E-14 -0.1050E-13  0.1194E+02  0.1194E+02
     21.919 -0.2385E-10 -0.2823E-10  0.1194E+02  0.1194E+02
     22.072 -0.1966E-07 -0.2263E-07  0.1194E+02  0.1194E+02
     22.226 -0.4746E-05 -0.5308E-05  0.1194E+02  0.1194E+02
     22.379 -0.3215E-03 -0.3489E-03  0.1194E+02  0.1194E+02
     22.533 -0.5342E-02 -0.5590E-02  0.1194E+02  0.1194E+02
     22.686 -0.6259E-02 -0.5396E-02  0.1194E+02  0.1194E+02
     22.840  0.1234E+00  0.1282E+00  0.1195E+02  0.1196E+02
     22.993  0.2402E+00  0.2388E+00  0.1199E+02  0.1199E+02
     23.147  0.6995E-01  0.6589E-01  0.1200E+02  0.1200E+02
     23.300 -0.1136E-01 -0.1145E-01  0.1200E+02  0.1200E+02
     23.453 -0.2906E-02 -0.2744E-02  0.1200E+02  0.1200E+02
     23.607 -0.1160E-03 -0.1060E-03  0.1200E+02  0.1200E+02
     23.760 -0.1203E-05 -0.1066E-05  0.1200E+02  0.1200E+02
     23.914 -0.3554E-08 -0.3062E-08  0.1200E+02  0.1200E+02
     24.067 -0.3096E-11 -0.2594E-11  0.1200E+02  0.1200E+02
     24.221 -0.8139E-15 -0.6331E-15  0.1200E+02  0.1200E+02
     24.374  0.0000E+00  0.0000E+00  0.1200E+02  0.1200E+02
     24.528  0.0000E+00  0.0000E+00  0.1200E+02  0.1200E+02
     24.681  0.0000E+00  0.0000E+00  0.1200E+02  0.1200E+02
     24.834  0.0000E+00  0.0000E+00  0.1200E+02  0.1200E+02
     24.988  0.0000E+00  0.0000E+00  0.1200E+02  0.1200E+02
