    2    2    1    2
  0.1673183E+02  0.2472373E-09  0.2472373E-09  0.6321422E-09  0.5000000E-15
  1.000000000000000E-004
  CAR 
 unknown system                          
      8      4     12
 
  0.1276756E-14  0.1276756E-14  0.1276756E-14  0.6250000E-01
      1        -18.952030      -18.954665   1.000000   1.000000
      2         -7.056842       -7.061851   1.000000   1.000000
      3         -2.519778       -2.521332   1.000000   1.000000
      4         -2.519775       -2.521331   1.000000   1.000000
      5          3.245174        3.228731   0.000000   0.000000
      6          8.370953        8.365549   0.000000   0.000000
      7          8.799001        8.797063   0.000000   0.000000
      8          8.799004        8.797064   0.000000   0.000000
      9         11.499711       11.478353   0.000000   0.000000
     10         11.879178       11.872979   0.000000   0.000000
     11         12.823341       12.818937   0.000000   0.000000
     12         22.895437       22.891896   0.000000   0.000000
 
  0.2500000E+00  0.1235123E-14  0.1276756E-14  0.3750000E+00
      1        -17.492901      -17.495482   1.000000   1.000000
      2         -6.903114       -6.905106   1.000000   1.000000
      3         -5.342028       -5.347098   1.000000   1.000000
      4         -4.518776       -4.520394   1.000000   1.000000
      5          5.233864        5.217738   0.000000   0.000000
      6          7.700615        7.694940   0.000000   0.000000
      7          8.480937        8.478038   0.000000   0.000000
      8         10.194767       10.189452   0.000000   0.000000
      9         13.361835       13.340614   0.000000   0.000000
     10         13.873007       13.871118   0.000000   0.000000
     11         15.529570       15.525743   0.000000   0.000000
     12         20.386554       20.381259   0.000000   0.000000
 
  0.5000000E+00  0.1165734E-14  0.1276756E-14  0.1875000E+00
      1        -13.744762      -13.747310   1.000000   1.000000
      2        -12.677240      -12.679443   1.000000   1.000000
      3         -5.878088       -5.879730   1.000000   1.000000
      4         -1.841353       -1.846650   0.996138   1.002042
      5          2.190635        2.185466  -0.000000  -0.000000
      6          7.802284        7.799047   0.000000   0.000000
      7         11.051005       11.032864   0.000000   0.000000
      8         11.210688       11.199457   0.000000   0.000000
      9         14.246366       14.242149   0.000000   0.000000
     10         15.950297       15.944458   0.000000   0.000000
     11         18.038316       18.019026   0.000000   0.000000
     12         20.382345       20.332433   0.000000   0.000000
 
  0.2500000E+00  0.2500000E+00  0.1276756E-14  0.3750000E+00
      1        -14.687977      -14.690456   1.000000   1.000000
      2        -10.003768      -10.006022   1.000000   1.000000
      3         -8.402008       -8.403868   1.000000   1.000000
      4         -2.213631       -2.218849   1.000484   1.000426
      5          3.304642        3.299163   0.000000   0.000000
      6          9.173400        9.158076   0.000000   0.000000
      7         11.990860       11.986830   0.000000   0.000000
      8         12.645641       12.642808   0.000000   0.000000
      9         13.013931       13.010255   0.000000   0.000000
     10         15.962803       15.957309   0.000000   0.000000
     11         16.704058       16.682388   0.000000   0.000000
     12         17.649131       17.629115   0.000000   0.000000
