       N       E                     dE             d eps       ncg     rms          rms(c)
DAV:   1     0.137837187175E+02    0.13784E+02   -0.33201E+03   200   0.430E+02
DAV:   2    -0.178052243004E+02   -0.31589E+02   -0.30883E+02   260   0.121E+02
DAV:   3    -0.188954063623E+02   -0.10902E+01   -0.10857E+01   240   0.195E+01
DAV:   4    -0.189025747114E+02   -0.71683E-02   -0.71680E-02   240   0.198E+00
DAV:   5    -0.189026368136E+02   -0.62102E-04   -0.62102E-04   256   0.167E-01    0.917E+00
RMM:   6    -0.183925753839E+02    0.51006E+00   -0.66447E-01   195   0.496E+00    0.403E+00
RMM:   7    -0.184521458733E+02   -0.59570E-01   -0.64459E-01   222   0.482E+00    0.192E+00
RMM:   8    -0.184660327152E+02   -0.13887E-01   -0.16796E-01   221   0.275E+00    0.901E-01
RMM:   9    -0.184759518584E+02   -0.99191E-02   -0.21570E-02   214   0.107E+00    0.489E-01
RMM:  10    -0.184785074708E+02   -0.25556E-02   -0.33375E-03   211   0.453E-01    0.208E-01
RMM:  11    -0.184785653089E+02   -0.57838E-04   -0.84668E-04   211   0.241E-01    0.710E-02
RMM:  12    -0.184801816534E+02   -0.16163E-02   -0.41417E-04   223   0.146E-01    0.475E-02
RMM:  13    -0.184803489942E+02   -0.16734E-03   -0.12100E-04   222   0.714E-02    0.259E-02
RMM:  14    -0.184803451140E+02    0.38802E-05   -0.14161E-05   194   0.273E-02
   1 F= -.18480345E+02 E0= -.18481117E+02  d E =0.231536E-02  mag=    -0.0003
