unknown system                          
           1
     1.236187   -2.141138    0.000000
     1.236187    2.141138    0.000000
     0.000000    0.000000    6.321422
   C 
     2
Direct configuration=     1
   0.33333333  0.16666667  0.50000000
   0.66666667  0.83333333  0.50000000
