 vasp.6.5.0 16Dec24 (build Mar 16 2025 21:55:21) complex                        
  
 executed on             LinuxIFC date 2025.11.27  14:55:10
 running    4 mpi-ranks, with   40 threads/rank, on    1 nodes
 distrk:  each k-point on    4 cores,    1 groups
 distr:  one band on NCORE=   1 cores,    4 groups


--------------------------------------------------------------------------------------------------------


 INCAR:
   SYSTEM = Si16
   ISYM = 0
   PREC = Normal
   IVDW = 10
   ISMEAR = -1
   SIGMA = 0.0258
   ENCUT = 300
   EDIFF = 1e-6
   LWAVE = F
   LCHARG = F
   LREAL = F
   IBRION = 0
   NSW = 10000
   POTIM = 2.0
   MDALGO = 3
   LANGEVIN_GAMMA = 1
   LANGEVIN_GAMMA_L = 10
   PMASS = 10
   TEBEG = 400
   ISIF = 3
   ML_LMLFF = T
   ML_MODE = train
   RANDOM_SEED = 688344966                0                0

 POTCAR:    PAW_PBE Si 05Jan2001                  
 POTCAR:    PAW_PBE Si 05Jan2001                  
   VRHFIN =Si: s2p2                                                                                 
   LEXCH  = PE                                                                                      
   EATOM  =   103.0669 eV,    7.5752 Ry                                                             
                                                                                                    
   TITEL  = PAW_PBE Si 05Jan2001                                                                    
   LULTRA =        F    use ultrasoft PP ?                                                          
   IUNSCR =        1    unscreen: 0-lin 1-nonlin 2-no                                               
   RPACOR =    1.500    partial core radius                                                         
   POMASS =   28.085; ZVAL   =    4.000    mass and valenz                                          
   RCORE  =    1.900    outmost cutoff radius                                                       
   RWIGS  =    2.480; RWIGS  =    1.312    wigner-seitz radius (au A)                               
   ENMAX  =  245.345; ENMIN  =  184.009 eV                                                          
   ICORE  =        2    local potential                                                             
   LCOR   =        T    correct aug charges                                                         
   LPAW   =        T    paw PP                                                                      
   EAUG   =  322.069                                                                                
   DEXC   =    0.000                                                                                
   RMAX   =    1.950    core radius for proj-oper                                                   
   RAUG   =    1.300    factor for augmentation sphere                                              
   RDEP   =    1.993    radius for radial grids                                                     
   RDEPT  =    1.837    core radius for aug-charge                                                  
                                                                                                    
   Atomic configuration                                                                             
    6 entries                                                                                       
     n  l   j            E        occ.                                                              
     1  0  0.50     -1785.8828   2.0000                                                             
     2  0  0.50      -139.4969   2.0000                                                             
     2  1  1.50       -95.5546   6.0000                                                             
     3  0  0.50       -10.8127   2.0000                                                             
     3  1  0.50        -4.0811   2.0000                                                             
     3  2  1.50        -4.0817   0.0000                                                             
   Description                                                                                      
     l       E           TYP  RCUT    TYP  RCUT                                                     
     0    -10.8127223     23  1.900                                                                 
     0     -7.6451159     23  1.900                                                                 
     1     -4.0811372     23  1.900                                                                 
     1      2.4879257     23  1.900                                                                 
     2     -4.0817478      7  1.900                                                                 
  local pseudopotential read in
  partial core-charges read in
  partial kinetic energy density read in
  atomic valenz-charges read in
  non local Contribution for L=           0  read in
    real space projection operators read in
  non local Contribution for L=           0  read in
    real space projection operators read in
  non local Contribution for L=           1  read in
    real space projection operators read in
  non local Contribution for L=           1  read in
    real space projection operators read in
    PAW grid and wavefunctions read in
 
   number of l-projection  operators is LMAX  =           4
   number of lm-projection operators is LMMAX =           8
 
  PAW_PBE Si 05Jan2001                  :
 energy of atom  1       EATOM= -103.0669
 kinetic energy error for atom=    0.0021 (will be added to EATOM!!)
 
 
 POSCAR: Si16
  positions in direct lattice
  No initial velocities read in



  D2 vdW correction parametrized for the method pbe       
  IVDW =  10
  VDW_C6 =    9.230 Jnm^6/mol
  VDW_R0 =    1.716 A
  VDW_RADIUS =    50.000 A
  VDW_S6 =     0.750
  VDW_SR =     1.000
  VDW_D =    20.000
  LVDW_EWALD = F



  MD-specific parameters
                MDALGO =   3
        LANGEVIN_GAMMA =     1.000
      LANGEVIN_GAMMA_L =    10.000
                 CNEXP =     9.000   14.000
 exchange-correlation table for PE
   RHO(1)=    0.500       N(1)  =     2000
   RHO(2)=  100.500       N(2)  =     4000
 


--------------------------------------------------------------------------------------------------------


 ion  position               nearest neighbor table
   1  0.125  0.125  0.125-   9 2.37  10 2.37  11 2.37  13 2.37
   2  0.125  0.125  0.625-   9 2.37  10 2.37  12 2.37  14 2.37
   3  0.125  0.625  0.125-   9 2.37  11 2.37  12 2.37  15 2.37
   4  0.125  0.625  0.625-  10 2.37  11 2.37  12 2.37  16 2.37
   5  0.625  0.125  0.125-   9 2.37  13 2.37  14 2.37  15 2.37
   6  0.625  0.125  0.625-  10 2.37  13 2.37  14 2.37  16 2.37
   7  0.625  0.625  0.125-  11 2.37  13 2.37  15 2.37  16 2.37
   8  0.625  0.625  0.625-  12 2.37  14 2.37  15 2.37  16 2.37
   9  0.250  0.250  0.250-   1 2.37   2 2.37   3 2.37   5 2.37
  10  0.250  0.250  0.750-   1 2.37   2 2.37   4 2.37   6 2.37
  11  0.250  0.750  0.250-   1 2.37   3 2.37   4 2.37   7 2.37
  12  0.250  0.750  0.750-   2 2.37   3 2.37   4 2.37   8 2.37
  13  0.750  0.250  0.250-   1 2.37   5 2.37   6 2.37   7 2.37
  14  0.750  0.250  0.750-   2 2.37   5 2.37   6 2.37   8 2.37
  15  0.750  0.750  0.250-   3 2.37   5 2.37   7 2.37   8 2.37
  16  0.750  0.750  0.750-   4 2.37   6 2.37   7 2.37   8 2.37
 

IMPORTANT INFORMATION: All symmetrisations will be switched off!
NOSYMM: (Re-)initialisation of all symmetry stuff for point group C_1.


----------------------------------------------------------------------------------------

                                     Primitive cell                                     

  volume of cell :     327.1063

  direct lattice vectors                    reciprocal lattice vectors
    -5.468728000 -5.468728000  0.000000000    -0.091428939 -0.091428939  0.091428939
    -5.468728000  0.000000000 -5.468728000    -0.091428939  0.091428939 -0.091428939
     0.000000000 -5.468728000 -5.468728000     0.091428939 -0.091428939 -0.091428939

  length of vectors
     7.733949307  7.733949307  7.733949307     0.158359568  0.158359568  0.158359568

  position of ions in fractional coordinates (direct lattice)
     0.125000000  0.125000000  0.125000000
     0.125000000  0.125000000  0.625000000
     0.125000000  0.625000000  0.125000000
     0.125000000  0.625000000  0.625000000
     0.625000000  0.125000000  0.125000000
     0.625000000  0.125000000  0.625000000
     0.625000000  0.625000000  0.125000000
     0.625000000  0.625000000  0.625000000
     0.250000000  0.250000000  0.250000000
     0.250000000  0.250000000  0.750000000
     0.250000000  0.750000000  0.250000000
     0.250000000  0.750000000  0.750000000
     0.750000000  0.250000000  0.250000000
     0.750000000  0.250000000  0.750000000
     0.750000000  0.750000000  0.250000000
     0.750000000  0.750000000  0.750000000

  ion indices of the primitive-cell ions
   primitive index   ion index
                 1           1
                 2           2
                 3           3
                 4           4
                 5           5
                 6           6
                 7           7
                 8           8
                 9           9
                10          10
                11          11
                12          12
                13          13
                14          14
                15          15
                16          16

----------------------------------------------------------------------------------------

 
 
 KPOINTS: Not only Gamma point                    

Automatic generation of k-mesh.
 Grid dimensions read from file:
 generate k-points for:    2    2    2

 Generating k-lattice:

  Cartesian coordinates                     Fractional coordinates (reciprocal lattice)
    -0.045714470 -0.045714470  0.045714470     0.500000000  0.000000000  0.000000000
    -0.045714470  0.045714470 -0.045714470     0.000000000  0.500000000  0.000000000
     0.045714470 -0.045714470 -0.045714470     0.000000000  0.000000000  0.500000000

  Length of vectors
     0.079179784  0.079179784  0.079179784

  Shift w.r.t. Gamma in fractional coordinates (k-lattice)
     0.000000000  0.000000000  0.000000000

 
 Subroutine IBZKPT returns following result:
 ===========================================
 
 Found      8 irreducible k-points:
 
 Following reciprocal coordinates:
            Coordinates               Weight
  0.000000  0.000000  0.000000      1.000000
  0.500000  0.000000  0.000000      1.000000
  0.000000  0.500000  0.000000      1.000000
  0.000000  0.000000  0.500000      1.000000
  0.500000  0.500000  0.500000      1.000000
  0.500000  0.500000  0.000000      1.000000
  0.000000  0.500000  0.500000      1.000000
  0.500000  0.000000  0.500000      1.000000
 
 Following cartesian coordinates:
            Coordinates               Weight
 -0.000000 -0.000000 -0.000000      1.000000
 -0.045714 -0.045714  0.045714      1.000000
 -0.045714  0.045714 -0.045714      1.000000
  0.045714 -0.045714 -0.045714      1.000000
 -0.045714 -0.045714 -0.045714      1.000000
 -0.091429 -0.000000 -0.000000      1.000000
 -0.000000 -0.000000 -0.091429      1.000000
 -0.000000 -0.091429 -0.000000      1.000000
 


--------------------------------------------------------------------------------------------------------




 Dimension of arrays:
   k-points           NKPTS =      8   k-points in BZ     NKDIM =      8   number of bands    NBANDS=     44
   number of dos      NEDOS =    301   number of ions     NIONS =     16
   non local maximal  LDIM  =      4   non local SUM 2l+1 LMDIM =      8
   total plane-waves  NPLWV =  46656
   max r-space proj   IRMAX =      1   max aug-charges    IRDMAX=   4968
   dimension x,y,z NGX =    36 NGY =   36 NGZ =   36
   dimension x,y,z NGXF=    72 NGYF=   72 NGZF=   72
   support grid    NGXF=    72 NGYF=   72 NGZF=   72
   ions per type =              16
   NGX,Y,Z   is equivalent  to a cutoff of   7.74,  7.74,  7.74 a.u.
   NGXF,Y,Z  is equivalent  to a cutoff of  15.48, 15.48, 15.48 a.u.

 SYSTEM =  Si16                                    
 POSCAR =  Si16                                    

 Startparameter for this run:
   NWRITE =      2    write-flag & timer
   PREC   = normal    normal or accurate (medium, high low for compatibility)
   ISTART =      0    job   : 0-new  1-cont  2-samecut
   ICHARG =      2    charge: 1-file 2-atom 10-const
   ISPIN  =      1    spin polarized calculation?
   LNONCOLLINEAR =      F non collinear calculations
   LSORBIT =      F    spin-orbit coupling
   INIWAV =      1    electr: 0-lowe 1-rand  2-diag
   LASPH  =      F    aspherical Exc in radial PAW
 Electronic Relaxation 1
   ENCUT  =  300.0 eV  22.05 Ry    4.70 a.u.  10.92 10.92 10.92*2*pi/ulx,y,z
   ENINI  =  300.0     initial cutoff
   ENAUG  =  322.1 eV  augmentation charge cutoff
   NELM   =     60;   NELMIN=  2; NELMDL= -5     # of ELM steps 
   EDIFF  = 0.1E-05   stopping-criterion for ELM
   LREAL  =      F    real-space projection
   NLSPLINE    = F    spline interpolate recip. space projectors
   LCOMPAT=      F    compatible to vasp.4.4
   GGA_COMPAT  = T    GGA compatible to vasp.4.4-vasp.4.6
   LMAXPAW     = -100 max onsite density
   LMAXMIX     =    2 max onsite mixed and CHGCAR
   VOSKOWN=      0    Vosko Wilk Nusair interpolation
   ROPT   =    0.00000
 Ionic relaxation
   EDIFFG = 0.1E-04   stopping-criterion for IOM
   NSW    =  10000    number of steps for IOM
   NBLOCK =      1;   KBLOCK =  10000    inner block; outer block 
   IBRION =      0    ionic relax: 0-MD 1-quasi-New 2-CG
   NFREE  =      0    steps in history (QN), initial steepest desc. (CG)
   ISIF   =      3    stress and relaxation
   IWAVPR =     11    prediction:  0-non 1-charg 2-wave 3-comb
   ISYM   =      0    0-nonsym 1-usesym 2-fastsym
   LCORR  =      T    Harris-Foulkes like correction to forces

   POTIM  = 2.0000    time-step for ionic-motion
   TEIN   =  400.0    initial temperature
   TEBEG  =  400.0;   TEEND  = 400.0 temperature during run
   SMASS  =  -3.00    Nose mass-parameter (am)
   estimated Nose-frequenzy (Omega)   =  0.10E-29 period in steps = 0.31E+46 mass=  -0.137E-26a.u.
   SCALEE = 1.0000    scale energy and forces
   NPACO  =    256;   APACO  = 10.0  distance and # of slots for P.C.
   PSTRESS=    0.0 pullay stress

  Mass of Ions in am
   POMASS =  28.09
  Ionic Valenz
   ZVAL   =   4.00
  Atomic Wigner-Seitz radii
   RWIGS  =  -1.00
  virtual crystal weights 
   VCA    =   1.00
   NELECT =      64.0000    total number of electrons
   NUPDOWN=      -1.0000    fix difference up-down

 DOS related values:
   EMIN   =  10.00;   EMAX   =-10.00  energy-range for DOS
   EFERMI =   0.00;   METHOD = LEGACY      
   ISMEAR =    -1;   SIGMA  =   0.03  broadening in eV -4-tet -1-fermi 0-gaus
   EFERMI_NEDOS =   21; number of points for ismear=-14 and -15

 Electronic relaxation 2 (details)
   IALGO  =     38    algorithm
   LDIAG  =      T    sub-space diagonalisation (order eigenvalues)
   LSUBROT=      F    optimize rotation matrix (better conditioning)
   TURBO    =      0    0=normal 1=particle mesh
   IRESTART =      0    0=no restart 2=restart with 2 vectors
   NREBOOT  =      0    no. of reboots
   NMIN     =      0    reboot dimension
   EREF     =   0.00    reference energy to select bands
   IMIX   =      4    mixing-type and parameters
     AMIX     =   0.40;   BMIX     =  1.00
     AMIX_MAG =   1.60;   BMIX_MAG =  1.00
     AMIN     =   0.10
     WC   =   100.;   INIMIX=   1;  MIXPRE=   1;  MAXMIX= -45

 Intra band minimization:
   WEIMIN = 0.0010     energy-eigenvalue tresh-hold
   EBREAK =  0.57E-08  absolut break condition
   DEPER  =   0.30     relativ break condition  

   TIME   =   0.40     timestep for ELM

  volume/ion in A,a.u.               =      20.44       137.96
  Fermi-wavevector in a.u.,A,eV,Ry     =   0.950397  1.795990 12.289529  0.903255
  Thomas-Fermi vector in A             =   2.078770
 
 Write flags
   LWAVE        =      F    write WAVECAR
   LDOWNSAMPLE  =      F    k-point downsampling of WAVECAR
   LCHARG       =      F    write CHGCAR
   LVTOT        =      F    write LOCPOT, total local potential
   LVHAR        =      F    write LOCPOT, Hartree potential only
   WRT_POTENTIAL= false  ! write potential to hdf5 file
   LELF         =      F    write electronic localiz. function (ELF)
   LORBIT       =      0    0 simple, 1 ext, 2 COOP (PROOUT), +10 PAW based schemes


 Python interface
   PLUGINS active      =      F    recompile with -DPLUGINS to activate
 
 Dipole corrections
   LMONO      =      F    monopole corrections only (constant potential shift)
   LDIPOL     =      F    correct potential (dipole corrections)
   IDIPOL     =      0    1-x, 2-y, 3-z, 4-all directions 
   EPSILON    =  1.0000000 bulk dielectric constant
   LVACPOTAV  =      F  vacuum potentials using an averaging scheme for the charge density
   VACPOTFLAT =  0.1000000 required flatness to determine vacuum potential
 
Coulomb truncation method
  LTRUNCATE          =      F  Coulomb kernel truncation to be used
  IDIMENSIONALITY    =      3  Dimensionality of cutoff (0 molecules / 2 surfaces)
  ISURFACE           =     -1  Direction of surface normal
  LCOARSEN           =      F  Coarsen the charge grid before padding, preferred

 
 Exchange correlation treatment:
   GGA     = PE    functional components
   XC_C    = 1    coefficients multiplying the functional components
   LIBXC   =     F    Libxc                    
   VOSKOWN =     0    Vosko Wilk Nusair interpolation
   LHFCALC =     F    Hartree Fock is set to
   LHFONE  =     F    Hartree Fock one center treatment
   AEXX    =    0.0000 exact exchange contribution

 Parameters of functionals:
   PE:
     No parameter
 
 Van der Waals corrections
   IVDW    =    10    specifies the selected vdW correction

 Linear response parameters
   LEPSILON=     F    determine dielectric tensor
   LRPA    =     F    only Hartree local field effects (RPA)
   LNABLA  =     F    use nabla operator in PAW spheres
   LVEL    =     F    velocity operator in full k-point grid
   CSHIFT  =0.1000    complex shift for real part using Kramers Kronig
   OMEGAMAX=  -1.0    maximum frequency
   DEG_THRESHOLD= 0.2000000E-02 threshold for treating states as degnerate
   RTIME   =   -0.100 relaxation time in fs
  (WPLASMAI=    0.000 imaginary part of plasma frequency in eV, 0.658/RTIME)
   DFIELD  = 0.0000000 0.0000000 0.0000000 field for delta impulse in time
 
  Optional k-point grid parameters
   LKPOINTS_OPT  =     F    use optional k-point grid
   KPOINTS_OPT_MODE=     1    mode for optional k-point grid
 
 Orbital magnetization related:
   ORBITALMAG=     F  switch on orbital magnetization
   LCHIMAG   =     F  perturbation theory with respect to B field
   DQ        =  0.001000  dq finite difference perturbation B field
   LLRAUG    =     F  two centre corrections for induced B field
   LBONE     =     F  B-component reconstruction in AE one-centre
   LVGVCALC  =     T  calculate vGv susceptibility
   LVGVAPPL  =     F  apply vGv susceptibility instead of pGv for G=0

 Random number generation:
   RANDOM_GENERATOR = DEFAULT
   PCG_SEED         = not used


--------------------------------------------------------------------------------------------------------


 molecular dynamics for ions
   using a microcanonical ensemble
 charge density and potential will be updated during run
 non-spin polarized calculation
 Variant of blocked Davidson
 Davidson routine will perform the subspace rotation
 perform sub-space diagonalisation
    after iterative eigenvector-optimisation
 modified Broyden-mixing scheme, WC =      100.0
 initial mixing is a Kerker type mixing with AMIX =  0.4000 and BMIX =      1.0000
 Hartree-type preconditioning will be used
 using additional bands           12
 reciprocal scheme for non local part
 use partial core corrections
 calculate Harris-corrections to forces 
   (improved forces if not selfconsistent)
 use gradient corrections 
 use of overlap-Matrix (Vanderbilt PP)
 Fermi-smearing in eV        SIGMA  =   0.03


--------------------------------------------------------------------------------------------------------


  energy-cutoff  :      300.00
  volume of cell :      327.11
      direct lattice vectors                 reciprocal lattice vectors
    -5.468728000 -5.468728000  0.000000000    -0.091428939 -0.091428939  0.091428939
    -5.468728000  0.000000000 -5.468728000    -0.091428939  0.091428939 -0.091428939
     0.000000000 -5.468728000 -5.468728000     0.091428939 -0.091428939 -0.091428939

  length of vectors
     7.733949307  7.733949307  7.733949307     0.158359568  0.158359568  0.158359568


 
 k-points in units of 2pi/SCALE and weight: Not only Gamma point                    
  -0.00000000 -0.00000000 -0.00000000       0.125
  -0.04571447 -0.04571447  0.04571447       0.125
  -0.04571447  0.04571447 -0.04571447       0.125
   0.04571447 -0.04571447 -0.04571447       0.125
  -0.04571447 -0.04571447 -0.04571447       0.125
  -0.09142894 -0.00000000 -0.00000000       0.125
  -0.00000000 -0.00000000 -0.09142894       0.125
  -0.00000000 -0.09142894 -0.00000000       0.125
 
 k-points in reciprocal lattice and weights: Not only Gamma point                    
   0.00000000  0.00000000  0.00000000       0.125
   0.50000000  0.00000000  0.00000000       0.125
   0.00000000  0.50000000  0.00000000       0.125
   0.00000000  0.00000000  0.50000000       0.125
   0.50000000  0.50000000  0.50000000       0.125
   0.50000000  0.50000000  0.00000000       0.125
   0.00000000  0.50000000  0.50000000       0.125
   0.50000000  0.00000000  0.50000000       0.125
 
 position of ions in fractional coordinates (direct lattice) 
   0.12500000  0.12500000  0.12500000
   0.12500000  0.12500000  0.62500000
   0.12500000  0.62500000  0.12500000
   0.12500000  0.62500000  0.62500000
   0.62500000  0.12500000  0.12500000
   0.62500000  0.12500000  0.62500000
   0.62500000  0.62500000  0.12500000
   0.62500000  0.62500000  0.62500000
   0.25000000  0.25000000  0.25000000
   0.25000000  0.25000000  0.75000000
   0.25000000  0.75000000  0.25000000
   0.25000000  0.75000000  0.75000000
   0.75000000  0.25000000  0.25000000
   0.75000000  0.25000000  0.75000000
   0.75000000  0.75000000  0.25000000
   0.75000000  0.75000000  0.75000000
 
 position of ions in cartesian coordinates  (Angst):
  -1.36718200 -1.36718200 -1.36718200
  -1.36718200 -4.10154600 -4.10154600
  -4.10154600 -1.36718200 -4.10154600
  -4.10154600 -4.10154600 -6.83591000
  -4.10154600 -4.10154600 -1.36718200
  -4.10154600 -6.83591000 -4.10154600
  -6.83591000 -4.10154600 -4.10154600
  -6.83591000 -6.83591000 -6.83591000
  -2.73436400 -2.73436400 -2.73436400
  -2.73436400 -5.46872800 -5.46872800
  -5.46872800 -2.73436400 -5.46872800
  -5.46872800 -5.46872800 -8.20309200
  -5.46872800 -5.46872800 -2.73436400
  -5.46872800 -8.20309200 -5.46872800
  -8.20309200 -5.46872800 -5.46872800
  -8.20309200 -8.20309200 -8.20309200
 


--------------------------------------------------------------------------------------------------------


 k-point     1 :   0.0000 0.0000 0.0000  plane waves:    3839
 k-point     2 :   0.5000 0.0000 0.0000  plane waves:    3828
 k-point     3 :   0.0000 0.5000 0.0000  plane waves:    3828
 k-point     4 :   0.0000 0.0000 0.5000  plane waves:    3828
 k-point     5 :   0.5000 0.5000 0.5000  plane waves:    3828
 k-point     6 :   0.5000 0.5000 0.0000  plane waves:    3892
 k-point     7 :   0.0000 0.5000 0.5000  plane waves:    3892
 k-point     8 :   0.5000 0.0000 0.5000  plane waves:    3892

 maximum and minimum number of plane-waves per node :      3892     3828

 maximum number of plane-waves:      3892
 maximum index in each direction: 
   IXMAX=   10   IYMAX=   10   IZMAX=   10
   IXMIN=  -11   IYMIN=  -11   IZMIN=  -11


 serial   3D FFT for wavefunctions
 parallel 3D FFT for charge:
    minimum data exchange during FFTs selected (reduces bandwidth)


 total amount of memory used by VASP MPI-rank0    48554. kBytes
=======================================================================

   base                                    :      30000. kBytes
   nonl-proj                               :       2989. kBytes
   fftplans                                :       3408. kBytes
   grid                                    :       6448. kBytes
   one-center                              :         49. kBytes
   wavefun                                 :       5660. kBytes
 
     INWAV:  cpu time      0.0002: real time      0.0001
 Broyden mixing: mesh for mixing (old mesh)
   NGX = 21   NGY = 21   NGZ = 21
  (NGX  = 72   NGY  = 72   NGZ  = 72)
  gives a total of   9261 points

 initial charge density was supplied:
 charge density of overlapping atoms calculated
 number of electron      64.0000000 magnetization 
 keeping initial charge density in first step


--------------------------------------------------------------------------------------------------------


 Maximum index for augmentation-charges         1148 (set IRDMAX)


--------------------------------------------------------------------------------------------------------


 First call to EWALD:  gamma=   0.257
 Maximum number of real-space cells   3x   3x   3
 Maximum number of reciprocal cells   3x   3x   3

    FEWALD:  cpu time      0.0075: real time      0.0075


--------------------------------------- Ionic step        1  -------------------------------------------


      MLFF:  cpu time      0.0143: real time      0.0143

  ML FORCE on cell =-STRESS in cart. coord. units (eV/cell)
  Direction    XX          YY          ZZ          XY          YZ          ZX
  --------------------------------------------------------------------------------------
  Total:      0.00000     0.00000     0.00000     0.00000     0.00000     0.00000
  in kB       0.00000     0.00000     0.00000     0.00000     0.00000     0.00000
  external pressure =        0.00 kB  Pullay stress =        0.00 kB

  kinetic pressure (ideal gas correction) =      2.53 kB
  total pressure  =      2.53 kB
  Total+kin.     0.651       1.928       5.019      -0.291       0.055       0.256
  volume of cell :      327.11
      direct lattice vectors                 reciprocal lattice vectors
    -5.468728000 -5.468728000  0.000000000    -0.091428939 -0.091428939  0.091428939
    -5.468728000  0.000000000 -5.468728000    -0.091428939  0.091428939 -0.091428939
     0.000000000 -5.468728000 -5.468728000     0.091428939 -0.091428939 -0.091428939

  length of vectors
     7.733949307  7.733949307  7.733949307     0.158359568  0.158359568  0.158359568


  POSITION                                       TOTAL-FORCE (eV/Angst) (ML)
 -----------------------------------------------------------------------------------
     -1.36718     -1.36718     -1.36718         0.000000      0.000000      0.000000
     -1.36718     -4.10155     -4.10155         0.000000      0.000000      0.000000
     -4.10155     -1.36718     -4.10155         0.000000      0.000000      0.000000
     -4.10155     -4.10155     -6.83591         0.000000      0.000000      0.000000
     -4.10155     -4.10155     -1.36718         0.000000      0.000000      0.000000
     -4.10155     -6.83591     -4.10155         0.000000      0.000000      0.000000
     -6.83591     -4.10155     -4.10155         0.000000      0.000000      0.000000
     -6.83591     -6.83591     -6.83591         0.000000      0.000000      0.000000
     -2.73436     -2.73436     -2.73436         0.000000      0.000000      0.000000
     -2.73436     -5.46873     -5.46873         0.000000      0.000000      0.000000
     -5.46873     -2.73436     -5.46873         0.000000      0.000000      0.000000
     -5.46873     -5.46873     -8.20309         0.000000      0.000000      0.000000
     -5.46873     -5.46873     -2.73436         0.000000      0.000000      0.000000
     -5.46873     -8.20309     -5.46873         0.000000      0.000000      0.000000
     -8.20309     -5.46873     -5.46873         0.000000      0.000000      0.000000
     -8.20309     -8.20309     -8.20309         0.000000      0.000000      0.000000
 -----------------------------------------------------------------------------------
    total drift:                                0.000000      0.000000      0.000000


--------------------------------------------------------------------------------------------------------



  ML FREE ENERGIE OF THE ION-ELECTRON SYSTEM (eV)
  ---------------------------------------------------
  free  energy ML TOTEN  =         0.00000000 eV

  ML energy  without entropy=        0.00000000  ML energy(sigma->0) =        0.00000000



--------------------------------------- Iteration      1(   1)  ---------------------------------------


    POTLOK:  cpu time     10.9196: real time      2.8128
    SETDIJ:  cpu time      2.2348: real time      0.4024
     EDDAV:  cpu time    944.2297: real time    198.6001
       DOS:  cpu time      0.0006: real time      0.0006
    --------------------------------------------
      LOOP:  cpu time    957.3847: real time    201.8159

 eigenvalue-minimisations  :   704
 total energy-change (2. order) : 0.1061321E+03  (-0.1746734E+04)
 number of electron      64.0000000 magnetization 
 augmentation part       64.0000000 magnetization 

 Free energy of the ion-electron system (eV)
  ---------------------------------------------------
  alpha Z        PSCENC =        26.34544293
  Ewald energy   TEWEN  =     -1815.55936149
  -Hartree energ DENC   =       -90.58711267
  -exchange      EXHF   =         0.00000000
  -V(xc)+E(xc)   XCENC  =      -149.48128047
  PAW double counting   =      1409.98079384    -1128.48828464
  entropy T*S    EENTRO =        -0.01416601
  eigenvalues    EBANDS =       204.89858001
  atomic energy  EATOM  =      1649.03748697
  Solvation  Ediel_sol  =         0.00000000
  ---------------------------------------------------
  free energy    TOTEN  =       106.13209847 eV

  energy without entropy =      106.14626448  energy(sigma->0) =      106.13918148


--------------------------------------------------------------------------------------------------------




--------------------------------------- Iteration      1(   2)  ---------------------------------------


     EDDAV:  cpu time   1061.3725: real time    231.6323
       DOS:  cpu time      0.0007: real time      0.0006
    --------------------------------------------
      LOOP:  cpu time   1061.3732: real time    231.6330

 eigenvalue-minimisations  :   872
 total energy-change (2. order) :-0.1828748E+03  (-0.1719119E+03)
 number of electron      64.0000000 magnetization 
 augmentation part       64.0000000 magnetization 

 Free energy of the ion-electron system (eV)
  ---------------------------------------------------
  alpha Z        PSCENC =        26.34544293
  Ewald energy   TEWEN  =     -1815.55936149
  -Hartree energ DENC   =       -90.58711267
  -exchange      EXHF   =         0.00000000
  -V(xc)+E(xc)   XCENC  =      -149.48128047
  PAW double counting   =      1409.98079384    -1128.48828464
  entropy T*S    EENTRO =        -0.00004068
  eigenvalues    EBANDS =        22.00962848
  atomic energy  EATOM  =      1649.03748697
  Solvation  Ediel_sol  =         0.00000000
  ---------------------------------------------------
  free energy    TOTEN  =       -76.74272774 eV

  energy without entropy =      -76.74268705  energy(sigma->0) =      -76.74270739


--------------------------------------------------------------------------------------------------------




--------------------------------------- Iteration      1(   3)  ---------------------------------------


     EDDAV:  cpu time   1052.4523: real time    230.9248
       DOS:  cpu time      0.0007: real time      0.0007
    --------------------------------------------
      LOOP:  cpu time   1052.4530: real time    230.9255

 eigenvalue-minimisations  :   904
 total energy-change (2. order) :-0.9832896E+01  (-0.9605958E+01)
 number of electron      64.0000000 magnetization 
 augmentation part       64.0000000 magnetization 

 Free energy of the ion-electron system (eV)
  ---------------------------------------------------
  alpha Z        PSCENC =        26.34544293
  Ewald energy   TEWEN  =     -1815.55936149
  -Hartree energ DENC   =       -90.58711267
  -exchange      EXHF   =         0.00000000
  -V(xc)+E(xc)   XCENC  =      -149.48128047
  PAW double counting   =      1409.98079384    -1128.48828464
  entropy T*S    EENTRO =        -0.00000000
  eigenvalues    EBANDS =        12.17669211
  atomic energy  EATOM  =      1649.03748697
  Solvation  Ediel_sol  =         0.00000000
  ---------------------------------------------------
  free energy    TOTEN  =       -86.57562342 eV

  energy without entropy =      -86.57562342  energy(sigma->0) =      -86.57562342


--------------------------------------------------------------------------------------------------------




--------------------------------------- Iteration      1(   4)  ---------------------------------------


     EDDAV:  cpu time   1022.0701: real time    224.9652
       DOS:  cpu time      0.0011: real time      0.0011
    --------------------------------------------
      LOOP:  cpu time   1022.0712: real time    224.9663

 eigenvalue-minimisations  :   848
 total energy-change (2. order) :-0.2044796E+00  (-0.2035324E+00)
 number of electron      64.0000000 magnetization 
 augmentation part       64.0000000 magnetization 

 Free energy of the ion-electron system (eV)
  ---------------------------------------------------
  alpha Z        PSCENC =        26.34544293
  Ewald energy   TEWEN  =     -1815.55936149
  -Hartree energ DENC   =       -90.58711267
  -exchange      EXHF   =         0.00000000
  -V(xc)+E(xc)   XCENC  =      -149.48128047
  PAW double counting   =      1409.98079384    -1128.48828464
  entropy T*S    EENTRO =        -0.00000000
  eigenvalues    EBANDS =        11.97221253
  atomic energy  EATOM  =      1649.03748697
  Solvation  Ediel_sol  =         0.00000000
  ---------------------------------------------------
  free energy    TOTEN  =       -86.78010300 eV

  energy without entropy =      -86.78010300  energy(sigma->0) =      -86.78010300


--------------------------------------------------------------------------------------------------------




--------------------------------------- Iteration      1(   5)  ---------------------------------------


     EDDAV:  cpu time   1002.7135: real time    221.6789
       DOS:  cpu time      0.0012: real time      0.0012
    CHARGE:  cpu time     12.9756: real time      3.5091
    MIXING:  cpu time      3.1540: real time      0.9135
    --------------------------------------------
      LOOP:  cpu time   1018.8449: real time    226.1027

 eigenvalue-minimisations  :   848
 total energy-change (2. order) :-0.5437312E-02  (-0.5419594E-02)
 number of electron      63.9999931 magnetization 
 augmentation part       -3.7216859 magnetization 

 Broyden mixing:
  rms(total) = 0.14044E+01    rms(broyden)= 0.14044E+01
  rms(prec ) = 0.18417E+01
  weight for this iteration     100.00

 Free energy of the ion-electron system (eV)
  ---------------------------------------------------
  alpha Z        PSCENC =        26.34544293
  Ewald energy   TEWEN  =     -1815.55936149
  -Hartree energ DENC   =       -90.58711267
  -exchange      EXHF   =         0.00000000
  -V(xc)+E(xc)   XCENC  =      -149.48128047
  PAW double counting   =      1409.98079384    -1128.48828464
  entropy T*S    EENTRO =        -0.00000000
  eigenvalues    EBANDS =        11.96677522
  atomic energy  EATOM  =      1649.03748697
  Solvation  Ediel_sol  =         0.00000000
  ---------------------------------------------------
  free energy    TOTEN  =       -86.78554031 eV

  energy without entropy =      -86.78554031  energy(sigma->0) =      -86.78554031


--------------------------------------------------------------------------------------------------------




--------------------------------------- Iteration      1(   6)  ---------------------------------------


    POTLOK:  cpu time     13.0216: real time      3.3252
    SETDIJ:  cpu time      2.1553: real time      0.5187
     EDDAV:  cpu time    841.9041: real time    196.9537
       DOS:  cpu time      0.0005: real time      0.0005
    CHARGE:  cpu time     14.3769: real time      3.1502
    MIXING:  cpu time      3.4318: real time      0.8873
    --------------------------------------------
      LOOP:  cpu time    874.8907: real time    204.8357

 eigenvalue-minimisations  :   776
 total energy-change (2. order) : 0.1048277E+01  (-0.5616101E-01)
 number of electron      63.9999932 magnetization 
 augmentation part       -3.6741341 magnetization 

 Broyden mixing:
  rms(total) = 0.86383E+00    rms(broyden)= 0.86383E+00
  rms(prec ) = 0.11166E+01
  weight for this iteration     100.00

 eigenvalues of (default mixing * dielectric matrix)
  average eigenvalue GAMMA=   2.5888
  2.5888

 Free energy of the ion-electron system (eV)
  ---------------------------------------------------
  alpha Z        PSCENC =        26.34544293
  Ewald energy   TEWEN  =     -1815.55936149
  -Hartree energ DENC   =      -103.10611741
  -exchange      EXHF   =         0.00000000
  -V(xc)+E(xc)   XCENC  =      -147.53001647
  PAW double counting   =      3061.40184330    -2780.76999669
  entropy T*S    EENTRO =        -0.00000002
  eigenvalues    EBANDS =        24.44345588
  atomic energy  EATOM  =      1649.03748697
  Solvation  Ediel_sol  =         0.00000000
  ---------------------------------------------------
  free energy    TOTEN  =       -85.73726300 eV

  energy without entropy =      -85.73726298  energy(sigma->0) =      -85.73726299


--------------------------------------------------------------------------------------------------------




--------------------------------------- Iteration      1(   7)  ---------------------------------------


    POTLOK:  cpu time      9.5064: real time      2.9334
    SETDIJ:  cpu time      1.5781: real time      0.4139
     EDDAV:  cpu time    842.6697: real time    191.7235
       DOS:  cpu time      0.0006: real time      0.0006
    CHARGE:  cpu time     14.9030: real time      3.4538
    MIXING:  cpu time      3.6914: real time      0.8122
    --------------------------------------------
      LOOP:  cpu time    872.3489: real time    199.3374

 eigenvalue-minimisations  :   756
 total energy-change (2. order) : 0.4797419E+00  (-0.1206218E+00)
 number of electron      63.9999933 magnetization 
 augmentation part       -3.6109746 magnetization 

 Broyden mixing:
  rms(total) = 0.50894E-01    rms(broyden)= 0.50894E-01
  rms(prec ) = 0.77886E-01
  weight for this iteration     100.00

 eigenvalues of (default mixing * dielectric matrix)
  average eigenvalue GAMMA=   2.2178
  2.2178  2.2178

 Free energy of the ion-electron system (eV)
  ---------------------------------------------------
  alpha Z        PSCENC =        26.34544293
  Ewald energy   TEWEN  =     -1815.55936149
  -Hartree energ DENC   =      -124.55555299
  -exchange      EXHF   =         0.00000000
  -V(xc)+E(xc)   XCENC  =      -144.13095721
  PAW double counting   =      7200.00410203    -6920.51543003
  entropy T*S    EENTRO =        -0.00000102
  eigenvalues    EBANDS =        44.11674975
  atomic energy  EATOM  =      1649.03748697
  Solvation  Ediel_sol  =         0.00000000
  ---------------------------------------------------
  free energy    TOTEN  =       -85.25752107 eV

  energy without entropy =      -85.25752004  energy(sigma->0) =      -85.25752056


--------------------------------------------------------------------------------------------------------




--------------------------------------- Iteration      1(   8)  ---------------------------------------


    POTLOK:  cpu time     13.9133: real time      3.2447
    SETDIJ:  cpu time      1.7278: real time      0.4151
     EDDAV:  cpu time    942.6724: real time    212.2304
       DOS:  cpu time      0.0008: real time      0.0008
    CHARGE:  cpu time     13.4360: real time      3.8399
    MIXING:  cpu time      1.4101: real time      0.4853
    --------------------------------------------
      LOOP:  cpu time    973.1599: real time    220.2162

 eigenvalue-minimisations  :   764
 total energy-change (2. order) :-0.1131409E-01  (-0.5966148E-02)
 number of electron      63.9999933 magnetization 
 augmentation part       -3.6193665 magnetization 

 Broyden mixing:
  rms(total) = 0.18236E-01    rms(broyden)= 0.18236E-01
  rms(prec ) = 0.27229E-01
  weight for this iteration     100.00

 eigenvalues of (default mixing * dielectric matrix)
  average eigenvalue GAMMA=   2.2753
  2.8419  1.9920  1.9920

 Free energy of the ion-electron system (eV)
  ---------------------------------------------------
  alpha Z        PSCENC =        26.34544293
  Ewald energy   TEWEN  =     -1815.55936149
  -Hartree energ DENC   =      -123.32093077
  -exchange      EXHF   =         0.00000000
  -V(xc)+E(xc)   XCENC  =      -144.24135934
  PAW double counting   =      7120.81560695    -6841.06579751
  entropy T*S    EENTRO =        -0.00000057
  eigenvalues    EBANDS =        42.72007767
  atomic energy  EATOM  =      1649.03748697
  Solvation  Ediel_sol  =         0.00000000
  ---------------------------------------------------
  free energy    TOTEN  =       -85.26883516 eV

  energy without entropy =      -85.26883459  energy(sigma->0) =      -85.26883487


--------------------------------------------------------------------------------------------------------




--------------------------------------- Iteration      1(   9)  ---------------------------------------


    POTLOK:  cpu time      8.7683: real time      2.3381
    SETDIJ:  cpu time      1.9215: real time      0.3515
     EDDAV:  cpu time    864.7619: real time    199.1952
       DOS:  cpu time      0.0006: real time      0.0006
    CHARGE:  cpu time     10.7007: real time      3.4290
    MIXING:  cpu time      2.7877: real time      0.9694
    --------------------------------------------
      LOOP:  cpu time    888.9406: real time    206.2837

 eigenvalue-minimisations  :   808
 total energy-change (2. order) :-0.2422781E-02  (-0.3001234E-03)
 number of electron      63.9999933 magnetization 
 augmentation part       -3.6197968 magnetization 

 Broyden mixing:
  rms(total) = 0.16146E-01    rms(broyden)= 0.16146E-01
  rms(prec ) = 0.17746E-01
  weight for this iteration     100.00

 eigenvalues of (default mixing * dielectric matrix)
  average eigenvalue GAMMA=   2.3729
  1.0054  3.7102  2.5332  2.2426

 Free energy of the ion-electron system (eV)
  ---------------------------------------------------
  alpha Z        PSCENC =        26.34544293
  Ewald energy   TEWEN  =     -1815.55936149
  -Hartree energ DENC   =      -123.89166154
  -exchange      EXHF   =         0.00000000
  -V(xc)+E(xc)   XCENC  =      -144.14520494
  PAW double counting   =      7162.90123440    -6883.15147122
  entropy T*S    EENTRO =        -0.00000055
  eigenvalues    EBANDS =        43.19227751
  atomic energy  EATOM  =      1649.03748697
  Solvation  Ediel_sol  =         0.00000000
  ---------------------------------------------------
  free energy    TOTEN  =       -85.27125794 eV

  energy without entropy =      -85.27125739  energy(sigma->0) =      -85.27125766


--------------------------------------------------------------------------------------------------------




--------------------------------------- Iteration      1(  10)  ---------------------------------------


    POTLOK:  cpu time     12.8115: real time      2.9239
    SETDIJ:  cpu time      1.5256: real time      0.3916
     EDDAV:  cpu time    902.3375: real time    210.8107
       DOS:  cpu time      0.0005: real time      0.0005
    CHARGE:  cpu time     18.4889: real time      3.5159
    MIXING:  cpu time      3.6489: real time      0.7453
    --------------------------------------------
      LOOP:  cpu time    938.8131: real time    218.3878

 eigenvalue-minimisations  :   760
 total energy-change (2. order) :-0.5317720E-03  (-0.1033313E-03)
 number of electron      63.9999933 magnetization 
 augmentation part       -3.6201976 magnetization 

 Broyden mixing:
  rms(total) = 0.57263E-02    rms(broyden)= 0.57263E-02
  rms(prec ) = 0.58288E-02
  weight for this iteration     100.00

 eigenvalues of (default mixing * dielectric matrix)
  average eigenvalue GAMMA=   1.9298
  3.0560  2.4211  2.1359  0.9949  1.0411

 Free energy of the ion-electron system (eV)
  ---------------------------------------------------
  alpha Z        PSCENC =        26.34544293
  Ewald energy   TEWEN  =     -1815.55936149
  -Hartree energ DENC   =      -123.94245531
  -exchange      EXHF   =         0.00000000
  -V(xc)+E(xc)   XCENC  =      -144.14162765
  PAW double counting   =      7041.55072276    -6761.78831231
  entropy T*S    EENTRO =        -0.00000051
  eigenvalues    EBANDS =        43.22631490
  atomic energy  EATOM  =      1649.03748697
  Solvation  Ediel_sol  =         0.00000000
  ---------------------------------------------------
  free energy    TOTEN  =       -85.27178971 eV

  energy without entropy =      -85.27178921  energy(sigma->0) =      -85.27178946


--------------------------------------------------------------------------------------------------------




--------------------------------------- Iteration      1(  11)  ---------------------------------------


    POTLOK:  cpu time      8.1006: real time      2.0408
    SETDIJ:  cpu time      1.7216: real time      0.3721
     EDDAV:  cpu time    868.5981: real time    194.1840
       DOS:  cpu time      0.0008: real time      0.0008
    CHARGE:  cpu time     19.3508: real time      3.9191
    MIXING:  cpu time      2.9027: real time      0.6348
    --------------------------------------------
      LOOP:  cpu time    900.6747: real time    201.1517

 eigenvalue-minimisations  :   780
 total energy-change (2. order) :-0.9820533E-06  (-0.2162243E-05)
 number of electron      63.9999933 magnetization 
 augmentation part       -3.6203411 magnetization 

 Broyden mixing:
  rms(total) = 0.56679E-03    rms(broyden)= 0.56678E-03
  rms(prec ) = 0.71573E-03
  weight for this iteration     100.00

 eigenvalues of (default mixing * dielectric matrix)
  average eigenvalue GAMMA=   2.0881
  3.1752  2.6719  2.6719  2.2093  0.9731  0.8275

 Free energy of the ion-electron system (eV)
  ---------------------------------------------------
  alpha Z        PSCENC =        26.34544293
  Ewald energy   TEWEN  =     -1815.55936149
  -Hartree energ DENC   =      -123.93943401
  -exchange      EXHF   =         0.00000000
  -V(xc)+E(xc)   XCENC  =      -144.14066491
  PAW double counting   =      7070.39494483    -6790.63119233
  entropy T*S    EENTRO =        -0.00000051
  eigenvalues    EBANDS =        43.22098782
  atomic energy  EATOM  =      1649.03748697
  Solvation  Ediel_sol  =         0.00000000
  ---------------------------------------------------
  free energy    TOTEN  =       -85.27179070 eV

  energy without entropy =      -85.27179018  energy(sigma->0) =      -85.27179044


--------------------------------------------------------------------------------------------------------




--------------------------------------- Iteration      1(  12)  ---------------------------------------


    POTLOK:  cpu time     11.0002: real time      2.3170
    SETDIJ:  cpu time      1.2316: real time      0.2553
     EDDAV:  cpu time    844.8491: real time    187.0622
       DOS:  cpu time      0.0004: real time      0.0004
    CHARGE:  cpu time     17.5917: real time      4.0915
    MIXING:  cpu time      2.3289: real time      0.6675
    --------------------------------------------
      LOOP:  cpu time    877.0015: real time    194.3939

 eigenvalue-minimisations  :   688
 total energy-change (2. order) :-0.2908260E-05  (-0.3311357E-06)
 number of electron      63.9999933 magnetization 
 augmentation part       -3.6202626 magnetization 

 Broyden mixing:
  rms(total) = 0.48961E-03    rms(broyden)= 0.48961E-03
  rms(prec ) = 0.56125E-03
  weight for this iteration     100.00

 eigenvalues of (default mixing * dielectric matrix)
  average eigenvalue GAMMA=   1.9133
  3.2704  2.6990  2.3115  2.3115  0.9890  0.9890  0.8227

 Free energy of the ion-electron system (eV)
  ---------------------------------------------------
  alpha Z        PSCENC =        26.34544293
  Ewald energy   TEWEN  =     -1815.55936149
  -Hartree energ DENC   =      -123.95353427
  -exchange      EXHF   =         0.00000000
  -V(xc)+E(xc)   XCENC  =      -144.14057908
  PAW double counting   =      7074.79071598    -6795.02690054
  entropy T*S    EENTRO =        -0.00000051
  eigenvalues    EBANDS =        43.23493641
  atomic energy  EATOM  =      1649.03748697
  Solvation  Ediel_sol  =         0.00000000
  ---------------------------------------------------
  free energy    TOTEN  =       -85.27179360 eV

  energy without entropy =      -85.27179309  energy(sigma->0) =      -85.27179335


--------------------------------------------------------------------------------------------------------




--------------------------------------- Iteration      1(  13)  ---------------------------------------


    POTLOK:  cpu time     14.2391: real time      3.2931
    SETDIJ:  cpu time      1.8633: real time      0.3603
     EDDAV:  cpu time    642.7192: real time    120.3476
       DOS:  cpu time      0.8530: real time      0.0627
    --------------------------------------------
      LOOP:  cpu time    659.6742: real time    124.0637

 eigenvalue-minimisations  :   404
 total energy-change (2. order) : 0.7185463E-06  (-0.3664319E-07)
 number of electron      63.9999933 magnetization 
 augmentation part       -3.6202626 magnetization 

 Free energy of the ion-electron system (eV)
  ---------------------------------------------------
  alpha Z        PSCENC =        26.34544293
  Ewald energy   TEWEN  =     -1815.55936149
  -Hartree energ DENC   =      -123.94727238
  -exchange      EXHF   =         0.00000000
  -V(xc)+E(xc)   XCENC  =      -144.14159734
  PAW double counting   =      7071.75377892    -6791.98942557
  entropy T*S    EENTRO =        -0.00000051
  eigenvalues    EBANDS =        43.22915557
  atomic energy  EATOM  =      1649.03748697
  Solvation  Ediel_sol  =         0.00000000
  ---------------------------------------------------
  free energy    TOTEN  =       -85.27179288 eV

  energy without entropy =      -85.27179237  energy(sigma->0) =      -85.27179263


--------------------------------------------------------------------------------------------------------




 average (electrostatic) potential at core
  the test charge radii are     0.9892
  (the norm of the test charge is              1.0000)
       1 -83.4153       2 -83.4153       3 -83.4153       4 -83.4153       5 -83.4153
       6 -83.4153       7 -83.4153       8 -83.4153       9 -83.4153      10 -83.4153
      11 -83.4153      12 -83.4153      13 -83.4153      14 -83.4153      15 -83.4153
      16 -83.4153
 
 
 
 E-fermi :   6.0210     XC(G=0):  -9.3007     alpha+bet :-11.7317

 val. band max:        5.6607101428   @ k =   0.0000   0.0000   0.0000
 cond. band min:       6.3991880898   @ k =   0.0000   0.0000   0.0000
 fundamental gap:      0.7384779469
 Fermi energy:         6.0210080751

 k-point     1 :       0.0000    0.0000    0.0000
  band No.  band energies     occupation 
      1      -6.1635      2.00000
      2      -3.8814      2.00000
      3      -3.8814      2.00000
      4      -3.8814      2.00000
      5      -3.8813      2.00000
      6      -2.0912      2.00000
      7      -2.0912      2.00000
      8      -2.0912      2.00000
      9      -2.0912      2.00000
     10      -2.0912      2.00000
     11      -2.0912      2.00000
     12      -1.2186      2.00000
     13      -1.2186      2.00000
     14      -1.2186      2.00000
     15      -1.2186      2.00000
     16       2.8564      2.00000
     17       2.8564      2.00000
     18       2.8564      2.00000
     19       2.8564      2.00000
     20       2.8564      2.00000
     21       2.8564      2.00000
     22       4.4782      2.00000
     23       4.4783      2.00000
     24       4.4783      2.00000
     25       4.4783      2.00000
     26       4.4783      2.00000
     27       4.4783      2.00000
     28       4.4783      2.00000
     29       4.4783      2.00000
     30       5.6607      2.00000
     31       5.6607      2.00000
     32       5.6607      2.00000
     33       6.3992      0.00000
     34       6.3992      0.00000
     35       6.3992      0.00000
     36       6.3992      0.00000
     37       6.3992      0.00000
     38       6.3992      0.00000
     39       7.1239      0.00000
     40       7.1239      0.00000
     41       7.1239      0.00000
     42       7.1239      0.00000
     43       8.2015      0.00000
     44       8.2015      0.00000

 k-point     2 :       0.5000    0.0000    0.0000
  band No.  band energies     occupation 
      1      -5.3778      2.00000
      2      -5.3778      2.00000
      3      -3.4965      2.00000
      4      -3.4965      2.00000
      5      -3.4965      2.00000
      6      -3.4965      2.00000
      7      -3.4965      2.00000
      8      -3.4965      2.00000
      9      -0.6689      2.00000
     10      -0.6689      2.00000
     11      -0.6689      2.00000
     12      -0.6689      2.00000
     13      -0.6689      2.00000
     14      -0.6689      2.00000
     15       1.7680      2.00000
     16       1.7680      2.00000
     17       2.1871      2.00000
     18       2.1871      2.00000
     19       2.1871      2.00000
     20       2.1871      2.00000
     21       2.1871      2.00000
     22       2.1871      2.00000
     23       3.4927      2.00000
     24       3.4927      2.00000
     25       3.4927      2.00000
     26       3.4927      2.00000
     27       3.4927      2.00000
     28       3.4927      2.00000
     29       4.9128      2.00000
     30       4.9128      2.00000
     31       4.9128      2.00000
     32       4.9128      2.00000
     33       7.1907      0.00000
     34       7.1907      0.00000
     35       7.1907      0.00000
     36       7.1907      0.00000
     37       7.1907      0.00000
     38       7.1907      0.00000
     39       7.6151      0.00000
     40       7.6151      0.00000
     41       9.1397      0.00000
     42       9.1397      0.00000
     43       9.1397      0.00000
     44       9.1397      0.00000

 k-point     3 :       0.0000    0.5000    0.0000
  band No.  band energies     occupation 
      1      -5.3778      2.00000
      2      -5.3778      2.00000
      3      -3.4965      2.00000
      4      -3.4965      2.00000
      5      -3.4965      2.00000
      6      -3.4965      2.00000
      7      -3.4965      2.00000
      8      -3.4965      2.00000
      9      -0.6689      2.00000
     10      -0.6689      2.00000
     11      -0.6689      2.00000
     12      -0.6689      2.00000
     13      -0.6689      2.00000
     14      -0.6689      2.00000
     15       1.7680      2.00000
     16       1.7680      2.00000
     17       2.1871      2.00000
     18       2.1871      2.00000
     19       2.1871      2.00000
     20       2.1871      2.00000
     21       2.1871      2.00000
     22       2.1871      2.00000
     23       3.4927      2.00000
     24       3.4927      2.00000
     25       3.4927      2.00000
     26       3.4927      2.00000
     27       3.4927      2.00000
     28       3.4927      2.00000
     29       4.9128      2.00000
     30       4.9128      2.00000
     31       4.9128      2.00000
     32       4.9128      2.00000
     33       7.1907      0.00000
     34       7.1907      0.00000
     35       7.1907      0.00000
     36       7.1907      0.00000
     37       7.1907      0.00000
     38       7.1907      0.00000
     39       7.6151      0.00000
     40       7.6151      0.00000
     41       9.1397      0.00000
     42       9.1397      0.00000
     43       9.1397      0.00000
     44       9.1397      0.00000

 k-point     4 :       0.0000    0.0000    0.5000
  band No.  band energies     occupation 
      1      -5.3778      2.00000
      2      -5.3778      2.00000
      3      -3.4965      2.00000
      4      -3.4965      2.00000
      5      -3.4965      2.00000
      6      -3.4965      2.00000
      7      -3.4965      2.00000
      8      -3.4965      2.00000
      9      -0.6689      2.00000
     10      -0.6689      2.00000
     11      -0.6689      2.00000
     12      -0.6689      2.00000
     13      -0.6689      2.00000
     14      -0.6689      2.00000
     15       1.7680      2.00000
     16       1.7680      2.00000
     17       2.1871      2.00000
     18       2.1871      2.00000
     19       2.1871      2.00000
     20       2.1871      2.00000
     21       2.1871      2.00000
     22       2.1871      2.00000
     23       3.4927      2.00000
     24       3.4927      2.00000
     25       3.4927      2.00000
     26       3.4927      2.00000
     27       3.4927      2.00000
     28       3.4927      2.00000
     29       4.9128      2.00000
     30       4.9128      2.00000
     31       4.9128      2.00000
     32       4.9128      2.00000
     33       7.1907      0.00000
     34       7.1907      0.00000
     35       7.1907      0.00000
     36       7.1907      0.00000
     37       7.1907      0.00000
     38       7.1907      0.00000
     39       7.6151      0.00000
     40       7.6151      0.00000
     41       9.1397      0.00000
     42       9.1397      0.00000
     43       9.1397      0.00000
     44       9.1397      0.00000

 k-point     5 :       0.5000    0.5000    0.5000
  band No.  band energies     occupation 
      1      -5.3778      2.00000
      2      -5.3778      2.00000
      3      -3.4965      2.00000
      4      -3.4965      2.00000
      5      -3.4965      2.00000
      6      -3.4965      2.00000
      7      -3.4965      2.00000
      8      -3.4965      2.00000
      9      -0.6689      2.00000
     10      -0.6689      2.00000
     11      -0.6689      2.00000
     12      -0.6689      2.00000
     13      -0.6689      2.00000
     14      -0.6689      2.00000
     15       1.7680      2.00000
     16       1.7680      2.00000
     17       2.1871      2.00000
     18       2.1871      2.00000
     19       2.1871      2.00000
     20       2.1871      2.00000
     21       2.1871      2.00000
     22       2.1871      2.00000
     23       3.4927      2.00000
     24       3.4927      2.00000
     25       3.4927      2.00000
     26       3.4927      2.00000
     27       3.4927      2.00000
     28       3.4927      2.00000
     29       4.9128      2.00000
     30       4.9128      2.00000
     31       4.9128      2.00000
     32       4.9128      2.00000
     33       7.1907      0.00000
     34       7.1907      0.00000
     35       7.1907      0.00000
     36       7.1907      0.00000
     37       7.1907      0.00000
     38       7.1907      0.00000
     39       7.6151      0.00000
     40       7.6151      0.00000
     41       9.1397      0.00000
     42       9.1397      0.00000
     43       9.1397      0.00000
     44       9.1397      0.00000

 k-point     6 :       0.5000    0.5000    0.0000
  band No.  band energies     occupation 
      1      -5.1000      2.00000
      2      -5.1000      2.00000
      3      -4.1573      2.00000
      4      -4.1573      2.00000
      5      -4.1573      2.00000
      6      -4.1573      2.00000
      7      -1.9357      2.00000
      8      -1.9357      2.00000
      9      -1.9357      2.00000
     10      -1.9357      2.00000
     11       0.2166      2.00000
     12       0.2166      2.00000
     13       0.2166      2.00000
     14       0.2166      2.00000
     15       1.8862      2.00000
     16       1.8862      2.00000
     17       1.8862      2.00000
     18       1.8862      2.00000
     19       1.9790      2.00000
     20       1.9790      2.00000
     21       1.9790      2.00000
     22       1.9790      2.00000
     23       2.1414      2.00000
     24       2.1414      2.00000
     25       3.8043      2.00000
     26       3.8043      2.00000
     27       3.8043      2.00000
     28       3.8043      2.00000
     29       4.3535      2.00000
     30       4.3535      2.00000
     31       4.3535      2.00000
     32       4.3535      2.00000
     33       6.7996      0.00000
     34       6.7996      0.00000
     35       8.0876      0.00000
     36       8.0876      0.00000
     37       8.0876      0.00000
     38       8.0876      0.00000
     39       8.7851      0.00000
     40       8.7851      0.00000
     41       9.9273      0.00000
     42       9.9273      0.00000
     43       9.9273      0.00000
     44       9.9278      0.00000

 k-point     7 :       0.0000    0.5000    0.5000
  band No.  band energies     occupation 
      1      -5.1000      2.00000
      2      -5.1000      2.00000
      3      -4.1573      2.00000
      4      -4.1573      2.00000
      5      -4.1573      2.00000
      6      -4.1573      2.00000
      7      -1.9357      2.00000
      8      -1.9357      2.00000
      9      -1.9357      2.00000
     10      -1.9357      2.00000
     11       0.2166      2.00000
     12       0.2166      2.00000
     13       0.2166      2.00000
     14       0.2166      2.00000
     15       1.8862      2.00000
     16       1.8862      2.00000
     17       1.8862      2.00000
     18       1.8862      2.00000
     19       1.9790      2.00000
     20       1.9790      2.00000
     21       1.9790      2.00000
     22       1.9790      2.00000
     23       2.1414      2.00000
     24       2.1414      2.00000
     25       3.8043      2.00000
     26       3.8043      2.00000
     27       3.8043      2.00000
     28       3.8043      2.00000
     29       4.3535      2.00000
     30       4.3535      2.00000
     31       4.3535      2.00000
     32       4.3535      2.00000
     33       6.7996      0.00000
     34       6.7996      0.00000
     35       8.0876      0.00000
     36       8.0876      0.00000
     37       8.0876      0.00000
     38       8.0876      0.00000
     39       8.7851      0.00000
     40       8.7851      0.00000
     41       9.9273      0.00000
     42       9.9273      0.00000
     43       9.9273      0.00000
     44       9.9274      0.00000

 k-point     8 :       0.5000    0.0000    0.5000
  band No.  band energies     occupation 
      1      -5.1000      2.00000
      2      -5.1000      2.00000
      3      -4.1573      2.00000
      4      -4.1573      2.00000
      5      -4.1573      2.00000
      6      -4.1573      2.00000
      7      -1.9357      2.00000
      8      -1.9357      2.00000
      9      -1.9357      2.00000
     10      -1.9357      2.00000
     11       0.2166      2.00000
     12       0.2166      2.00000
     13       0.2166      2.00000
     14       0.2166      2.00000
     15       1.8862      2.00000
     16       1.8862      2.00000
     17       1.8862      2.00000
     18       1.8862      2.00000
     19       1.9790      2.00000
     20       1.9790      2.00000
     21       1.9790      2.00000
     22       1.9790      2.00000
     23       2.1414      2.00000
     24       2.1414      2.00000
     25       3.8043      2.00000
     26       3.8043      2.00000
     27       3.8043      2.00000
     28       3.8043      2.00000
     29       4.3535      2.00000
     30       4.3535      2.00000
     31       4.3535      2.00000
     32       4.3535      2.00000
     33       6.7996      0.00000
     34       6.7996      0.00000
     35       8.0876      0.00000
     36       8.0876      0.00000
     37       8.0876      0.00000
     38       8.0876      0.00000
     39       8.7851      0.00000
     40       8.7851      0.00000
     41       9.9273      0.00000
     42       9.9273      0.00000
     43       9.9273      0.00000
     44       9.9274      0.00000


--------------------------------------------------------------------------------------------------------


 soft charge-density along one line, spin component           1
         0         1         2         3         4         5         6         7         8         9
 total charge-density along one line
 
 pseudopotential strength for first ion, spin component:           1
 18.432  25.716   0.000   0.000   0.000   0.000   0.000   0.000
 25.716  35.883   0.000   0.000   0.000   0.000   0.000   0.000
  0.000   0.000   4.181  -0.000  -0.000   7.790  -0.000  -0.000
  0.000   0.000  -0.000   4.181  -0.000  -0.000   7.790  -0.000
  0.000   0.000  -0.000  -0.000   4.181  -0.000  -0.000   7.790
  0.000   0.000   7.790  -0.000  -0.000  14.528  -0.000  -0.000
  0.000   0.000  -0.000   7.790  -0.000  -0.000  14.528  -0.000
  0.000   0.000  -0.000  -0.000   7.790  -0.000  -0.000  14.528
 total augmentation occupancy for first ion, spin component:           1
  5.646  -2.118  -0.000  -0.000   0.000  -0.000  -0.000  -0.000
 -2.118   0.888   0.000   0.000   0.000  -0.000  -0.000   0.000
 -0.000   0.000   3.054   0.000   0.000  -0.698  -0.000  -0.000
 -0.000   0.000   0.000   3.054   0.000  -0.000  -0.698  -0.000
  0.000   0.000   0.000   0.000   3.054  -0.000  -0.000  -0.698
 -0.000  -0.000  -0.698  -0.000  -0.000   0.169   0.000   0.000
 -0.000  -0.000  -0.000  -0.698  -0.000   0.000   0.169   0.000
 -0.000   0.000  -0.000  -0.000  -0.698   0.000   0.000   0.169


------------------------ aborting loop because EDIFF is reached ----------------------------------------


    CHARGE:  cpu time     23.8561: real time      4.0186
    FORLOC:  cpu time      1.9350: real time      0.3770
    FORNL :  cpu time      4.1760: real time      1.2090
    STRESS:  cpu time     69.6846: real time     13.1100
    FORCOR:  cpu time      9.7990: real time      2.5403
    FORHAR:  cpu time      4.3291: real time      0.9200
    MIXING:  cpu time      3.1495: real time      0.7313
    OFIELD:  cpu time      0.0017: real time      0.0002

  DFT-D2 method for vdW energy calculation
  -------------------------------------------------------------------
  Number of pair interactions contributing to vdW energy:  217424
  Edisp (eV):   -3.50814
    FORVDW:  cpu time      0.7873: real time      0.1897

  FORCE on cell =-STRESS in cart. coord.  units (eV):
  Direction    XX          YY          ZZ          XY          YZ          ZX
  --------------------------------------------------------------------------------------
  Alpha Z    26.34544    26.34544    26.34544
  Ewald    -605.18840  -605.18840  -605.18840     0.00000    -0.00000    -0.00000
  Hartree    41.31565    41.31565    41.31565    -0.00001    -0.00001    -0.00000
  E(xc)    -202.45175  -202.45175  -202.45175    -0.00000    -0.00000    -0.00000
  Local    -237.88025  -237.88025  -237.88025     0.00013     0.00010     0.00008
  n-local   617.45989   617.45989   617.45989     0.00007     0.00008     0.00008
  augment   -92.00197   -92.00197   -92.00197    -0.00021    -0.00021    -0.00021
  Kinetic   453.33981   453.33980   453.33981     0.00004     0.00003     0.00002
  Fock        0.00000     0.00000     0.00000     0.00000     0.00000     0.00000
  vdW        -5.83088    -5.83088    -5.83088    -0.00000     0.00000    -0.00000
  -------------------------------------------------------------------------------------
  Total      -4.89247    -4.89247    -4.89246     0.00001    -0.00002    -0.00004
  in kB     -23.96346   -23.96347   -23.96345     0.00005    -0.00009    -0.00020
  external pressure =      -23.96 kB  Pullay stress =        0.00 kB

  kinetic pressure (ideal gas correction) =      2.53 kB
  total pressure  =    -21.43 kB
  Total+kin.   -23.313     -22.036     -18.945      -0.291       0.055       0.255

 VOLUME and BASIS-vectors are now :
 -----------------------------------------------------------------------------
  energy-cutoff  :      300.00
  volume of cell :      327.11
      direct lattice vectors                 reciprocal lattice vectors
    -5.468728000 -5.468728000  0.000000000    -0.091428939 -0.091428939  0.091428939
    -5.468728000  0.000000000 -5.468728000    -0.091428939  0.091428939 -0.091428939
     0.000000000 -5.468728000 -5.468728000     0.091428939 -0.091428939 -0.091428939

  length of vectors
     7.733949307  7.733949307  7.733949307     0.158359568  0.158359568  0.158359568


 FORCES acting on ions
    electron-ion (+dipol)            ewald-force                    non-local-force                 convergence-correction
 -----------------------------------------------------------------------------------------------
   0.704E-04 0.500E-04 0.623E-04   -.311E-14 -.982E-14 -.793E-14   -.172E-05 -.207E-04 -.260E-04   -.700E-04 -.300E-04 -.319E-04
   0.107E-03 -.209E-04 0.393E-04   0.172E-14 -.837E-14 -.720E-14   -.125E-04 0.759E-05 -.519E-04   -.964E-04 0.763E-05 0.123E-04
   -.211E-04 0.541E-04 -.788E-04   -.354E-14 -.994E-14 -.725E-14   -.116E-04 -.911E-05 -.103E-04   0.284E-04 -.486E-04 0.867E-04
   -.595E-04 0.185E-05 0.323E-04   -.383E-14 -.103E-13 -.114E-13   0.582E-05 0.131E-04 -.300E-04   0.509E-04 -.171E-04 -.333E-05
   -.615E-04 0.820E-05 0.595E-04   -.299E-14 -.981E-14 -.110E-13   -.148E-04 -.329E-04 0.568E-05   0.727E-04 0.233E-04 -.688E-04
   0.870E-05 -.227E-04 -.285E-04   -.372E-14 -.145E-13 -.733E-14   -.418E-04 -.206E-04 0.165E-05   0.363E-04 0.421E-04 0.208E-04
   0.549E-04 0.162E-04 0.266E-04   -.117E-14 -.104E-13 -.733E-14   -.380E-04 -.222E-04 -.234E-04   -.188E-04 0.846E-05 -.303E-05
   0.536E-04 -.149E-04 0.362E-04   -.694E-14 -.100E-13 -.694E-14   -.299E-04 -.141E-04 -.445E-05   -.252E-04 0.279E-04 -.387E-04
   -.442E-04 0.233E-04 -.210E-04   0.286E-14 0.106E-13 0.777E-14   -.175E-04 0.111E-04 0.222E-04   0.667E-04 -.294E-04 -.357E-06
   -.300E-04 -.115E-03 -.320E-04   -.324E-15 0.925E-14 0.672E-14   -.803E-05 0.309E-04 0.376E-04   0.443E-04 0.837E-04 -.484E-05
   0.639E-04 0.499E-04 -.381E-04   0.319E-14 0.112E-13 0.750E-14   0.415E-05 0.122E-04 0.486E-04   -.624E-04 -.531E-04 -.114E-04
   0.179E-04 -.319E-05 -.417E-04   0.410E-14 0.107E-13 0.104E-13   0.174E-04 -.296E-04 0.253E-04   -.301E-04 0.411E-04 0.157E-04
   0.186E-04 -.125E-04 0.317E-04   0.268E-14 0.950E-14 0.120E-13   0.367E-04 0.963E-05 -.617E-05   -.555E-04 0.521E-05 -.158E-04
   0.694E-04 0.225E-04 -.252E-04   0.401E-14 0.135E-13 0.723E-14   0.116E-04 0.226E-04 -.490E-06   -.765E-04 -.478E-04 0.310E-04
   -.114E-03 -.623E-04 0.103E-04   0.150E-15 0.955E-14 0.780E-14   0.285E-04 0.114E-04 -.285E-05   0.841E-04 0.489E-04 -.200E-05
   -.249E-04 0.258E-04 -.160E-04   0.718E-14 0.949E-14 0.681E-14   0.108E-04 0.364E-04 0.715E-05   0.138E-04 -.602E-04 0.115E-04
 -----------------------------------------------------------------------------------------------
   0.109E-03 0.848E-06 0.169E-04   0.260E-15 0.576E-15 -.266E-15   -.606E-04 0.574E-05 -.752E-05   -.379E-04 0.227E-05 -.223E-05
 
 
 POSITION                                       TOTAL-FORCE (eV/Angst)
 -----------------------------------------------------------------------------------
     -1.36718     -1.36718     -1.36718        -0.000001     -0.000001      0.000004
     -1.36718     -4.10155     -4.10155        -0.000002     -0.000006     -0.000000
     -4.10155     -1.36718     -4.10155        -0.000004     -0.000004     -0.000002
     -4.10155     -4.10155     -6.83591        -0.000003     -0.000002     -0.000001
     -4.10155     -4.10155     -1.36718        -0.000004     -0.000001     -0.000004
     -4.10155     -6.83591     -4.10155         0.000003     -0.000001     -0.000006
     -6.83591     -4.10155     -4.10155        -0.000002      0.000002      0.000000
     -6.83591     -6.83591     -6.83591        -0.000001     -0.000001     -0.000007
     -2.73436     -2.73436     -2.73436         0.000005      0.000005      0.000001
     -2.73436     -5.46873     -5.46873         0.000006      0.000000      0.000001
     -5.46873     -2.73436     -5.46873         0.000006      0.000009     -0.000001
     -5.46873     -5.46873     -8.20309         0.000005      0.000008     -0.000001
     -5.46873     -5.46873     -2.73436        -0.000000      0.000002      0.000010
     -5.46873     -8.20309     -5.46873         0.000005     -0.000003      0.000005
     -8.20309     -5.46873     -5.46873        -0.000001     -0.000002      0.000005
     -8.20309     -8.20309     -8.20309        -0.000000      0.000002      0.000003
 -----------------------------------------------------------------------------------
    total drift:                                0.000011      0.000009      0.000007


--------------------------------------------------------------------------------------------------------



  FREE ENERGIE OF THE ION-ELECTRON SYSTEM (eV)
  ---------------------------------------------------
  free  energy   TOTEN  =       -88.77992882 eV

  energy  without entropy=      -88.77992831  energy(sigma->0) =      -88.77992857
 


--------------------------------------------------------------------------------------------------------


    POTLOK:  cpu time     11.9013: real time      2.6185


--------------------------------------------------------------------------------------------------------


    MLFFLR:  cpu time      0.8178: real time      0.2422
           RANDOM_SEED =         688344966                0                0
           RANDOM_SEED =         688344966              228                0
   IONSTEP:  cpu time      0.0014: real time      0.0028

  ENERGY OF THE ELECTRON-ION-THERMOSTAT SYSTEM (eV)
  ---------------------------------------------------
% ion-electron   TOTEN  =       -88.779929  see above
  kinetic energy EKIN   =         0.824327
  kin. lattice  EKIN_LAT=         0.076991  (temperature  366.99 K)
  nose potential ES     =         0.000000
  nose kinetic   EPS    =         0.000000
  ---------------------------------------------------
  total energy   ETOTAL =       -87.878611 eV

  maximum distance moved by ions :      0.33E-02



--------------------------------------- Ionic step        2  -------------------------------------------


      MLFF:  cpu time      0.0115: real time      0.0139
    WAVPRE:  cpu time      1.3764: real time      0.3290
    FEWALD:  cpu time      0.6331: real time      0.1989
    GENKIN:  cpu time      0.0154: real time      0.0154
    ORTHCH:  cpu time     10.1746: real time      2.5978
     LOOP+:  cpu time  12241.7405: real time   2727.9638

  ML FORCE on cell =-STRESS in cart. coord. units (eV/cell)
  Direction    XX          YY          ZZ          XY          YZ          ZX
  --------------------------------------------------------------------------------------
  Total:      0.00000     0.00000     0.00000     0.00000     0.00000     0.00000
  in kB       0.00000     0.00000     0.00000     0.00000     0.00000     0.00000
  external pressure =        0.00 kB  Pullay stress =        0.00 kB

  kinetic pressure (ideal gas correction) =      2.69 kB
  total pressure  =      2.69 kB
  Total+kin.     3.776       2.222       2.070       0.094      -0.679      -0.081
  volume of cell :      326.07
      direct lattice vectors                 reciprocal lattice vectors
    -5.462483705 -5.453940640  0.002813185    -0.091581486 -0.091581486  0.091581486
    -5.466320724  0.011555301 -5.454765424    -0.091421204  0.091517202 -0.091517202
     0.000000000 -5.462945522 -5.462945522     0.091237152 -0.091427326 -0.091624106

  length of vectors
     7.719080557  7.722387041  7.725771647     0.158623787  0.158457038  0.158360824


  POSITION                                       TOTAL-FORCE (eV/Angst) (ML)
 -----------------------------------------------------------------------------------
     -1.35964     -1.35715     -1.37084         0.000000      0.000000      0.000000
     -1.36986     -4.09264     -4.09649         0.000000      0.000000      0.000000
     -4.10529     -1.36117     -4.08629         0.000000      0.000000      0.000000
     -4.10512     -4.09486     -6.81521         0.000000      0.000000      0.000000
     -4.10470     -4.07711     -1.35445         0.000000      0.000000      0.000000
     -4.09216     -6.82286     -4.09437         0.000000      0.000000      0.000000
     -6.84469     -4.08425     -4.08935         0.000000      0.000000      0.000000
     -6.82931     -6.81696     -6.81871         0.000000      0.000000      0.000000
     -2.71228     -2.72961     -2.72622         0.000000      0.000000      0.000000
     -2.73683     -5.46161     -5.45311         0.000000      0.000000      0.000000
     -5.45818     -2.71083     -5.45671         0.000000      0.000000      0.000000
     -5.46544     -5.45943     -8.18802         0.000000      0.000000      0.000000
     -5.46054     -5.45705     -2.71840         0.000000      0.000000      0.000000
     -5.45905     -8.19555     -5.44577         0.000000      0.000000      0.000000
     -8.20509     -5.45456     -5.45589         0.000000      0.000000      0.000000
     -8.18787     -8.17694     -8.17896         0.000000      0.000000      0.000000
 -----------------------------------------------------------------------------------
    total drift:                                0.000000      0.000000      0.000000


--------------------------------------------------------------------------------------------------------



  ML FREE ENERGIE OF THE ION-ELECTRON SYSTEM (eV)
  ---------------------------------------------------
  free  energy ML TOTEN  =         0.00000000 eV

  ML energy  without entropy=        0.00000000  ML energy(sigma->0) =        0.00000000



--------------------------------------- Iteration      2(   1)  ---------------------------------------


    POTLOK:  cpu time     14.3841: real time      3.2619
    SETDIJ:  cpu time      1.1542: real time      0.2572
     EDDAV:  cpu time    873.6134: real time    195.0439
       DOS:  cpu time      0.0009: real time      0.0009
    CHARGE:  cpu time     18.4598: real time      3.6230
    MIXING:  cpu time      3.3616: real time      0.7342
    --------------------------------------------
      LOOP:  cpu time    910.9746: real time    202.9212

 eigenvalue-minimisations  :   720
 total energy-change (2. order) : 0.2135996E-01  (-0.5338698E-01)
 number of electron      63.9999942 magnetization 
 augmentation part       -3.6200734 magnetization 

 Broyden mixing:
  rms(total) = 0.37863E-01    rms(broyden)= 0.37856E-01
  rms(prec ) = 0.50023E-01
  weight for this iteration     100.00

 Free energy of the ion-electron system (eV)
  ---------------------------------------------------
  alpha Z        PSCENC =        26.42896632
  Ewald energy   TEWEN  =     -1817.43391212
  -Hartree energ DENC   =      -124.09325427
  -exchange      EXHF   =         0.00000000
  -V(xc)+E(xc)   XCENC  =      -144.01855998
  PAW double counting   =      7071.96535659    -6792.20096124
  entropy T*S    EENTRO =        -0.00000101
  eigenvalues    EBANDS =        45.06444510
  atomic energy  EATOM  =      1649.03748697
  Solvation  Ediel_sol  =         0.00000000
  ---------------------------------------------------
  free energy    TOTEN  =       -85.25043364 eV

  energy without entropy =      -85.25043263  energy(sigma->0) =      -85.25043314


--------------------------------------------------------------------------------------------------------




--------------------------------------- Iteration      2(   2)  ---------------------------------------


    POTLOK:  cpu time     12.4950: real time      2.7856
    SETDIJ:  cpu time      1.4883: real time      0.3271
     EDDAV:  cpu time   1007.4897: real time    227.4064
       DOS:  cpu time      0.0007: real time      0.0007
[...]
     15       1.7863      2.00000
     16       1.8041      2.00000
     17       2.1738      2.00000
     18       2.1823      2.00000
     19       2.1991      2.00000
     20       2.2090      2.00000
     21       2.2376      2.00000
     22       2.2508      2.00000
     23       3.4862      2.00000
     24       3.5038      2.00000
     25       3.5108      2.00000
     26       3.5179      2.00000
     27       3.5269      2.00000
     28       3.5497      2.00000
     29       4.9046      2.00000
     30       4.9221      2.00000
     31       4.9469      2.00000
     32       4.9823      2.00000
     33       7.1907      0.00000
     34       7.2014      0.00000
     35       7.2070      0.00000
     36       7.2195      0.00000
     37       7.2295      0.00000
     38       7.2517      0.00000
     39       7.6372      0.00000
     40       7.6622      0.00000
     41       9.1367      0.00000
     42       9.1469      0.00000
     43       9.1919      0.00000
     44       9.2137      0.00000

 k-point     3 :       0.0000    0.5000    0.0000
  band No.  band energies     occupation 
      1      -5.3864      2.00000
      2      -5.3522      2.00000
      3      -3.5047      2.00000
      4      -3.4945      2.00000
      5      -3.4904      2.00000
      6      -3.4726      2.00000
      7      -3.4499      2.00000
      8      -3.4305      2.00000
      9      -0.6917      2.00000
     10      -0.6883      2.00000
     11      -0.6730      2.00000
     12      -0.6653      2.00000
     13      -0.6500      2.00000
     14      -0.5980      2.00000
     15       1.8052      2.00000
     16       1.8196      2.00000
     17       2.2046      2.00000
     18       2.2165      2.00000
     19       2.2255      2.00000
     20       2.2273      2.00000
     21       2.2450      2.00000
     22       2.2642      2.00000
     23       3.4752      2.00000
     24       3.4871      2.00000
     25       3.5002      2.00000
     26       3.5113      2.00000
     27       3.5318      2.00000
     28       3.5442      2.00000
     29       4.9023      2.00000
     30       4.9214      2.00000
     31       4.9317      2.00000
     32       4.9830      2.00000
     33       7.1748      0.00000
     34       7.1903      0.00000
     35       7.2009      0.00000
     36       7.2045      0.00000
     37       7.2278      0.00000
     38       7.2450      0.00000
     39       7.6308      0.00000
     40       7.6709      0.00000
     41       9.1353      0.00000
     42       9.1502      0.00000
     43       9.1712      0.00000
     44       9.2079      0.00000

 k-point     4 :       0.0000    0.0000    0.5000
  band No.  band energies     occupation 
      1      -5.3780      2.00000
      2      -5.3565      2.00000
      3      -3.5113      2.00000
      4      -3.4978      2.00000
      5      -3.4853      2.00000
      6      -3.4724      2.00000
      7      -3.4567      2.00000
      8      -3.4459      2.00000
      9      -0.6815      2.00000
     10      -0.6653      2.00000
     11      -0.6514      2.00000
     12      -0.6283      2.00000
     13      -0.6166      2.00000
     14      -0.6085      2.00000
     15       1.7668      2.00000
     16       1.7754      2.00000
     17       2.1657      2.00000
     18       2.1756      2.00000
     19       2.1957      2.00000
     20       2.2071      2.00000
     21       2.2146      2.00000
     22       2.2195      2.00000
     23       3.5041      2.00000
     24       3.5156      2.00000
     25       3.5192      2.00000
     26       3.5257      2.00000
     27       3.5394      2.00000
     28       3.5611      2.00000
     29       4.9219      2.00000
     30       4.9426      2.00000
     31       4.9628      2.00000
     32       4.9956      2.00000
     33       7.2065      0.00000
     34       7.2211      0.00000
     35       7.2227      0.00000
     36       7.2264      0.00000
     37       7.2397      0.00000
     38       7.2579      0.00000
     39       7.6645      0.00000
     40       7.6902      0.00000
     41       9.1462      0.00000
     42       9.1570      0.00000
     43       9.1987      0.00000
     44       9.2234      0.00000

 k-point     5 :       0.5000    0.5000    0.5000
  band No.  band energies     occupation 
      1      -5.3750      2.00000
      2      -5.3518      2.00000
      3      -3.5203      2.00000
      4      -3.5104      2.00000
      5      -3.4818      2.00000
      6      -3.4770      2.00000
      7      -3.4646      2.00000
      8      -3.4420      2.00000
      9      -0.7050      2.00000
     10      -0.6572      2.00000
     11      -0.6308      2.00000
     12      -0.6188      2.00000
     13      -0.6089      2.00000
     14      -0.5989      2.00000
     15       1.7857      2.00000
     16       1.7935      2.00000
     17       2.1683      2.00000
     18       2.1841      2.00000
     19       2.1979      2.00000
     20       2.2034      2.00000
     21       2.2163      2.00000
     22       2.2248      2.00000
     23       3.4875      2.00000
     24       3.4978      2.00000
     25       3.5234      2.00000
     26       3.5292      2.00000
     27       3.5310      2.00000
     28       3.5463      2.00000
     29       4.8872      2.00000
     30       4.9475      2.00000
     31       4.9654      2.00000
     32       4.9689      2.00000
     33       7.1875      0.00000
     34       7.1977      0.00000
     35       7.2236      0.00000
     36       7.2268      0.00000
     37       7.2386      0.00000
     38       7.2492      0.00000
     39       7.6372      0.00000
     40       7.6662      0.00000
     41       9.1256      0.00000
     42       9.1698      0.00000
     43       9.1997      0.00000
     44       9.2068      0.00000

 k-point     6 :       0.5000    0.5000    0.0000
  band No.  band energies     occupation 
      1      -5.0909      2.00000
      2      -5.0863      2.00000
      3      -4.1556      2.00000
      4      -4.1488      2.00000
      5      -4.1363      2.00000
      6      -4.1246      2.00000
      7      -1.9383      2.00000
      8      -1.9203      2.00000
      9      -1.9030      2.00000
     10      -1.8883      2.00000
     11       0.2145      2.00000
     12       0.2251      2.00000
     13       0.2506      2.00000
     14       0.2750      2.00000
     15       1.8882      2.00000
     16       1.8950      2.00000
     17       1.9052      2.00000
     18       1.9117      2.00000
     19       1.9912      2.00000
     20       1.9999      2.00000
     21       2.0018      2.00000
     22       2.0052      2.00000
     23       2.1741      2.00000
     24       2.1776      2.00000
     25       3.8136      2.00000
     26       3.8170      2.00000
     27       3.8445      2.00000
     28       3.8493      2.00000
     29       4.3582      2.00000
     30       4.3690      2.00000
     31       4.4019      2.00000
     32       4.4080      2.00000
     33       6.8287      0.00000
     34       6.8303      0.00000
     35       8.1002      0.00000
     36       8.1081      0.00000
     37       8.1388      0.00000
     38       8.1448      0.00000
     39       8.8151      0.00000
     40       8.8169      0.00000
     41       9.9328      0.00000
     42       9.9453      0.00000
     43       9.9611      0.00000
     44       9.9751      0.00000

 k-point     7 :       0.0000    0.5000    0.5000
  band No.  band energies     occupation 
      1      -5.0907      2.00000
      2      -5.0839      2.00000
      3      -4.1617      2.00000
      4      -4.1471      2.00000
      5      -4.1319      2.00000
      6      -4.1280      2.00000
      7      -1.9363      2.00000
      8      -1.9259      2.00000
      9      -1.9056      2.00000
     10      -1.8888      2.00000
     11       0.2309      2.00000
     12       0.2341      2.00000
     13       0.2445      2.00000
     14       0.2663      2.00000
     15       1.8881      2.00000
     16       1.8923      2.00000
     17       1.9099      2.00000
     18       1.9168      2.00000
     19       1.9958      2.00000
     20       2.0005      2.00000
     21       2.0033      2.00000
     22       2.0094      2.00000
     23       2.1771      2.00000
     24       2.1802      2.00000
     25       3.8183      2.00000
     26       3.8253      2.00000
     27       3.8263      2.00000
     28       3.8359      2.00000
     29       4.3709      2.00000
     30       4.3747      2.00000
     31       4.3855      2.00000
     32       4.3861      2.00000
     33       6.8215      0.00000
     34       6.8249      0.00000
     35       8.1110      0.00000
     36       8.1131      0.00000
     37       8.1161      0.00000
     38       8.1227      0.00000
     39       8.8154      0.00000
     40       8.8184      0.00000
     41       9.9328      0.00000
     42       9.9462      0.00000
     43       9.9807      0.00000
     44       9.9894      0.00000

 k-point     8 :       0.5000    0.0000    0.5000
  band No.  band energies     occupation 
      1      -5.0973      2.00000
      2      -5.0799      2.00000
      3      -4.1627      2.00000
      4      -4.1502      2.00000
      5      -4.1343      2.00000
      6      -4.1175      2.00000
      7      -1.9591      2.00000
      8      -1.9122      2.00000
      9      -1.9098      2.00000
     10      -1.8702      2.00000
     11       0.1967      2.00000
     12       0.2419      2.00000
     13       0.2622      2.00000
     14       0.2659      2.00000
     15       1.8846      2.00000
     16       1.8993      2.00000
     17       1.9060      2.00000
     18       1.9203      2.00000
     19       1.9872      2.00000
     20       1.9936      2.00000
     21       2.0024      2.00000
     22       2.0103      2.00000
     23       2.1687      2.00000
     24       2.1771      2.00000
     25       3.8107      2.00000
     26       3.8243      2.00000
     27       3.8305      2.00000
     28       3.8554      2.00000
     29       4.3635      2.00000
     30       4.3772      2.00000
     31       4.3816      2.00000
     32       4.4181      2.00000
     33       6.8244      0.00000
     34       6.8330      0.00000
     35       8.1033      0.00000
     36       8.1136      0.00000
     37       8.1205      0.00000
     38       8.1510      0.00000
     39       8.8114      0.00000
     40       8.8216      0.00000
     41       9.9178      0.00000
     42       9.9491      0.00000
     43       9.9583      0.00000
     44       9.9898      0.00000


--------------------------------------------------------------------------------------------------------


 soft charge-density along one line, spin component           1
         0         1         2         3         4         5         6         7         8         9
 total charge-density along one line
 
 pseudopotential strength for first ion, spin component:           1
 18.429  25.712   0.000  -0.000  -0.000   0.000  -0.000  -0.001
 25.712  35.877   0.000  -0.000  -0.001   0.000  -0.000  -0.001
  0.000   0.000   4.181  -0.000   0.000   7.790  -0.000   0.000
 -0.000  -0.000  -0.000   4.181   0.000  -0.000   7.790   0.000
 -0.000  -0.001   0.000   0.000   4.181   0.000   0.000   7.790
  0.000   0.000   7.790  -0.000   0.000  14.527  -0.000   0.000
 -0.000  -0.000  -0.000   7.790   0.000  -0.000  14.527   0.000
 -0.001  -0.001   0.000   0.000   7.790   0.000   0.000  14.527
 total augmentation occupancy for first ion, spin component:           1
  5.706  -2.152  -0.008  -0.044   0.021   0.003   0.015  -0.008
 -2.152   0.904   0.006   0.022  -0.009  -0.002  -0.007   0.003
 -0.008   0.006   3.078  -0.011   0.034  -0.706   0.002  -0.010
 -0.044   0.022  -0.011   3.079  -0.005   0.002  -0.706   0.002
  0.021  -0.009   0.034  -0.005   3.082  -0.010   0.002  -0.707
  0.003  -0.002  -0.706   0.002  -0.010   0.171  -0.001   0.003
  0.015  -0.007   0.002  -0.706   0.002  -0.001   0.171  -0.001
 -0.008   0.003  -0.010   0.002  -0.707   0.003  -0.001   0.171


------------------------ aborting loop because EDIFF is reached ----------------------------------------


    CHARGE:  cpu time     11.1752: real time      3.4227
    FORLOC:  cpu time      1.1974: real time      0.3457
    FORNL :  cpu time      3.1225: real time      1.2210
    STRESS:  cpu time     51.1533: real time     11.2837
    FORCOR:  cpu time     11.6277: real time      3.1711
    FORHAR:  cpu time      4.2067: real time      1.2797
    MIXING:  cpu time      1.7183: real time      0.5896
    OFIELD:  cpu time      0.0005: real time      0.0001

  DFT-D2 method for vdW energy calculation
  -------------------------------------------------------------------
  Number of pair interactions contributing to vdW energy:  217975
  Edisp (eV):   -3.52659
    FORVDW:  cpu time      0.0606: real time      0.0354

  FORCE on cell =-STRESS in cart. coord.  units (eV):
  Direction    XX          YY          ZZ          XY          YZ          ZX
  --------------------------------------------------------------------------------------
  Alpha Z    26.42897    26.42897    26.42897
  Ewald    -605.63075  -605.60852  -606.20050     2.89937     4.03067    -2.11584
  Hartree    41.25812    41.25838    41.14612     0.53269     0.43830    -0.17683
  E(xc)    -202.59827  -202.59877  -202.59868    -0.02598    -0.03320     0.01737
  Local    -237.78616  -237.80463  -237.06316    -3.36061    -4.22077     2.13589
  n-local   617.96718   617.97454   617.89892     0.56588     0.82642    -0.44649
  augment   -92.01233   -92.01308   -92.01395    -0.04669    -0.03446     0.01329
  Kinetic   453.86615   453.87129   454.05999     0.04560    -0.58649     0.40752
  Fock        0.00000     0.00000     0.00000     0.00000     0.00000     0.00000
  vdW        -5.83974    -5.83953    -5.83962     0.00640     0.00218    -0.00025
  -------------------------------------------------------------------------------------
  Total      -4.34683    -4.33135    -4.18192     0.61666     0.42263    -0.16535
  in kB     -21.35842   -21.28235   -20.54810     3.02998     2.07664    -0.81248
  external pressure =      -21.06 kB  Pullay stress =        0.00 kB

  kinetic pressure (ideal gas correction) =      2.69 kB
  total pressure  =    -18.37 kB
  Total+kin.   -17.583     -19.061     -18.478       3.124       1.398      -0.894

 VOLUME and BASIS-vectors are now :
 -----------------------------------------------------------------------------
  energy-cutoff  :      300.00
  volume of cell :      326.07
      direct lattice vectors                 reciprocal lattice vectors
    -5.462483705 -5.453940640  0.002813185    -0.091581486 -0.091581486  0.091581486
    -5.466320724  0.011555301 -5.454765424    -0.091421204  0.091517202 -0.091517202
     0.000000000 -5.462945522 -5.462945522     0.091237152 -0.091427326 -0.091624106

  length of vectors
     7.719080557  7.722387041  7.725771647     0.158623787  0.158457038  0.158360824


 FORCES acting on ions
    electron-ion (+dipol)            ewald-force                    non-local-force                 convergence-correction
 -----------------------------------------------------------------------------------------------
   0.747E+00 -.142E+00 -.813E+00   -.556E+00 0.104E+00 0.658E+00   -.222E+00 0.128E-01 0.345E+00   -.266E-03 0.130E-03 0.490E-03
   0.158E+00 0.517E+00 -.242E+00   -.140E+00 -.480E+00 0.222E+00   0.556E-01 -.206E+00 0.846E-01   0.193E-03 -.267E-03 -.926E-04
   -.585E+00 0.356E+00 -.102E+01   0.536E+00 -.330E+00 0.813E+00   0.231E+00 -.524E-01 0.247E+00   0.104E-03 0.115E-03 0.148E-03
   0.611E-01 0.115E-01 0.149E+00   -.475E-01 0.483E-02 -.122E+00   0.657E-01 0.612E-01 -.985E-01   0.731E-04 0.264E-03 -.478E-03
   -.532E+00 -.348E+00 0.769E+00   0.496E+00 0.220E+00 -.672E+00   0.204E+00 -.330E-01 -.187E+00   0.106E-03 -.111E-03 -.350E-03
   0.365E+00 -.181E+00 -.458E+00   -.274E+00 0.151E+00 0.435E+00   -.129E+00 -.146E-01 0.195E+00   -.214E-03 -.743E-04 0.346E-03
   -.772E+00 0.286E+00 0.335E+00   0.678E+00 -.267E+00 -.311E+00   0.307E+00 -.505E-01 -.476E-01   0.246E-03 -.826E-04 -.121E-03
   -.496E+00 -.239E+00 -.948E+00   0.416E+00 0.209E+00 0.772E+00   0.143E+00 -.106E-02 0.285E+00   -.107E-03 0.577E-04 0.311E-03
   0.724E+00 0.167E+00 -.267E-01   -.656E+00 -.103E+00 0.515E-01   -.331E+00 0.836E-02 -.220E-01   -.383E-03 -.936E-04 0.485E-04
   -.253E+00 0.163E+00 0.549E+00   0.110E+00 -.117E+00 -.494E+00   0.208E+00 -.267E-01 -.196E+00   0.572E-03 -.560E-04 -.239E-03
   0.598E+00 0.879E+00 -.734E-01   -.553E+00 -.815E+00 0.115E+00   -.238E+00 -.231E+00 -.101E-01   -.252E-03 -.160E-03 -.170E-04
   0.477E-01 -.348E+00 0.263E-01   -.426E-01 0.291E+00 0.552E-01   -.575E-01 0.150E+00 -.641E-01   0.994E-04 0.348E-03 -.273E-03
   -.529E+00 -.774E+00 0.126E+01   0.388E+00 0.745E+00 -.112E+01   0.142E+00 0.210E+00 -.342E+00   0.286E-03 0.253E-03 -.287E-03
   0.353E+00 -.777E+00 0.192E+00   -.295E+00 0.725E+00 -.188E+00   -.154E+00 0.267E+00 -.978E-01   -.204E-03 0.595E-04 0.974E-05
   -.376E+00 0.786E-01 0.458E+00   0.321E+00 -.729E-03 -.343E+00   0.417E-01 -.618E-03 -.113E+00   0.128E-03 -.466E-04 -.121E-03
   0.490E+00 0.350E+00 -.161E+00   -.383E+00 -.338E+00 0.129E+00   -.266E+00 -.920E-01 0.229E-01   -.441E-03 -.199E-03 0.107E-03
 -----------------------------------------------------------------------------------------------
   -.294E-03 -.129E-02 -.116E-02   0.128E-13 0.372E-14 0.885E-14   0.414E-03 0.104E-02 0.212E-02   -.597E-04 0.139E-03 -.518E-03
 
 
 POSITION                                       TOTAL-FORCE (eV/Angst)
 -----------------------------------------------------------------------------------
     -1.35964     -1.35715     -1.37084        -0.031308     -0.024692      0.191913
     -1.36986     -4.09264     -4.09649         0.073631     -0.169340      0.064671
     -4.10529     -1.36117     -4.08629         0.181590     -0.025069      0.044138
     -4.10512     -4.09486     -6.81521         0.079047      0.078712     -0.072191
     -4.10470     -4.07711     -1.35445         0.167814     -0.161441     -0.091089
     -4.09216     -6.82286     -4.09437        -0.038183     -0.043747      0.172922
     -6.84469     -4.08425     -4.08935         0.212825     -0.031554     -0.023169
     -6.82931     -6.81696     -6.81871         0.062088     -0.030260      0.109470
     -2.71228     -2.72961     -2.72622        -0.263561      0.071494      0.003107
     -2.73683     -5.46161     -5.45311         0.067158      0.019307     -0.141157
     -5.45818     -2.71083     -5.45671        -0.193625     -0.168556      0.031462
     -5.46544     -5.45943     -8.18802        -0.051185      0.093393      0.017441
     -5.46054     -5.45705     -2.71840         0.000645      0.180901     -0.206777
     -5.45905     -8.19555     -5.44577        -0.095789      0.214417     -0.093783
     -8.20509     -5.45456     -5.45589        -0.012264      0.077181      0.002266
     -8.18787     -8.17694     -8.17896        -0.158824     -0.080855     -0.008786
 -----------------------------------------------------------------------------------
    total drift:                                0.000061     -0.000108      0.000437


--------------------------------------------------------------------------------------------------------



  FREE ENERGIE OF THE ION-ELECTRON SYSTEM (eV)
  ---------------------------------------------------
  free  energy   TOTEN  =       -88.77865440 eV

  energy  without entropy=      -88.77865351  energy(sigma->0) =      -88.77865395
 d Force =-0.1525100E-01[-0.305E-01, 0.365E-06]  d Energy =-0.1274423E-02-0.140E-01
 d Force =-0.4020456E-01[-0.804E-01,-0.482E-16]  d Ewald  = 0.1874551E+01-0.191E+01
 


--------------------------------------------------------------------------------------------------------


    POTLOK:  cpu time     13.4173: real time      3.8068


--------------------------------------------------------------------------------------------------------


