<?xml version="1.0" encoding="ISO-8859-1"?>
<modeling>
 <generator>
  <i name="program" type="string">vasp </i>
  <i name="version" type="string">6.5.0  </i>
  <i name="subversion" type="string">16Dec24 (build Mar 16 2025 21:55:21) complex                          parallel </i>
  <i name="platform" type="string">LinuxIFC </i>
  <i name="date" type="string">2025 11 27 </i>
  <i name="time" type="string">14:55:10 </i>
 </generator>
 <incar>
  <i type="string" name="SYSTEM">Si16</i>
  <i type="string" name="PREC">Normal</i>
  <i type="int" name="IBRION">     0</i>
  <i name="EDIFF">      0.00000100</i>
  <i type="int" name="NSW"> 10000</i>
  <i type="int" name="ISIF">     3</i>
  <i type="int" name="ISYM">     0</i>
  <i name="ENCUT">    300.00000000</i>
  <i name="POTIM">      2.00000000</i>
  <i name="TEBEG">    400.00000000</i>
  <i type="logical" name="LREAL"> F  </i>
  <i type="int" name="ISMEAR">    -1</i>
  <i name="SIGMA">      0.02580000</i>
  <i type="logical" name="LWAVE"> F  </i>
  <i type="logical" name="LCHARG"> F  </i>
  <v type="int" name="RANDOM_SEED">******     0     0</v>
  <i type="logical" name="ML_LMLFF"> T  </i>
  <i type="string" name="ML_MODE">train</i>
  <i type="int" name="IVDW">    10</i>
  <i type="int" name="MDALGO">     3</i>
  <v name="LANGEVIN_GAMMA">      1.00000000</v>
  <i name="LANGEVIN_GAMMA_L">     10.00000000</i>
  <i name="PMASS">     10.00000000</i>
 </incar>
 <primitive_cell>
  <structure name="primitive_cell" >
   <crystal>
    <varray name="basis" >
     <v>      -5.46872800      -5.46872800       0.00000000 </v>
     <v>      -5.46872800       0.00000000      -5.46872800 </v>
     <v>       0.00000000      -5.46872800      -5.46872800 </v>
    </varray>
    <i name="volume">    327.10634279 </i>
    <varray name="rec_basis" >
     <v>      -0.09142894      -0.09142894       0.09142894 </v>
     <v>      -0.09142894       0.09142894      -0.09142894 </v>
     <v>       0.09142894      -0.09142894      -0.09142894 </v>
    </varray>
   </crystal>
   <varray name="positions" >
    <v>       0.12500000       0.12500000       0.12500000 </v>
    <v>       0.12500000       0.12500000       0.62500000 </v>
    <v>       0.12500000       0.62500000       0.12500000 </v>
    <v>       0.12500000       0.62500000       0.62500000 </v>
    <v>       0.62500000       0.12500000       0.12500000 </v>
    <v>       0.62500000       0.12500000       0.62500000 </v>
    <v>       0.62500000       0.62500000       0.12500000 </v>
    <v>       0.62500000       0.62500000       0.62500000 </v>
    <v>       0.25000000       0.25000000       0.25000000 </v>
    <v>       0.25000000       0.25000000       0.75000000 </v>
    <v>       0.25000000       0.75000000       0.25000000 </v>
    <v>       0.25000000       0.75000000       0.75000000 </v>
    <v>       0.75000000       0.25000000       0.25000000 </v>
    <v>       0.75000000       0.25000000       0.75000000 </v>
    <v>       0.75000000       0.75000000       0.25000000 </v>
    <v>       0.75000000       0.75000000       0.75000000 </v>
   </varray>
  </structure>
  <varray name="primitive_index" >
   <v type="int" >        1 </v>
   <v type="int" >        2 </v>
   <v type="int" >        3 </v>
   <v type="int" >        4 </v>
   <v type="int" >        5 </v>
   <v type="int" >        6 </v>
   <v type="int" >        7 </v>
   <v type="int" >        8 </v>
   <v type="int" >        9 </v>
   <v type="int" >       10 </v>
   <v type="int" >       11 </v>
   <v type="int" >       12 </v>
   <v type="int" >       13 </v>
   <v type="int" >       14 </v>
   <v type="int" >       15 </v>
   <v type="int" >       16 </v>
  </varray>
 </primitive_cell>
 <kpoints>
  <generation param="Gamma">
   <v type="int" name="divisions">       2        2        2 </v>
   <v name="usershift">      0.00000000       0.00000000       0.00000000 </v>
   <v name="genvec1">      0.50000000       0.00000000       0.00000000 </v>
   <v name="genvec2">      0.00000000       0.50000000       0.00000000 </v>
   <v name="genvec3">      0.00000000       0.00000000       0.50000000 </v>
   <v name="shift">      0.00000000       0.00000000       0.00000000 </v>
  </generation>
  <varray name="kpointlist" >
   <v>       0.00000000       0.00000000       0.00000000 </v>
   <v>       0.50000000       0.00000000       0.00000000 </v>
   <v>       0.00000000       0.50000000       0.00000000 </v>
   <v>       0.00000000       0.00000000       0.50000000 </v>
   <v>       0.50000000       0.50000000       0.50000000 </v>
   <v>       0.50000000       0.50000000       0.00000000 </v>
   <v>       0.00000000       0.50000000       0.50000000 </v>
   <v>       0.50000000       0.00000000       0.50000000 </v>
  </varray>
  <varray name="weights" >
   <v>       0.12500000 </v>
   <v>       0.12500000 </v>
   <v>       0.12500000 </v>
   <v>       0.12500000 </v>
   <v>       0.12500000 </v>
   <v>       0.12500000 </v>
   <v>       0.12500000 </v>
   <v>       0.12500000 </v>
  </varray>
 </kpoints>
 <parameters>
  <separator name="general" >
   <i type="string" name="SYSTEM">Si16</i>
   <i type="logical" name="LCOMPAT"> F  </i>
  </separator>
  <separator name="electronic" >
   <i type="string" name="PREC">normal</i>
   <i name="ENMAX">    300.00000000</i>
   <i name="ENAUG">    322.06900000</i>
   <i name="EDIFF">      0.00000100</i>
   <i type="int" name="IALGO">    38</i>
   <i type="int" name="IWAVPR">    11</i>
   <i type="int" name="NBANDS">    44</i>
   <i type="int" name="NBANDSLOW">    -1</i>
   <i type="int" name="NBANDSHIGH">    -1</i>
   <i name="NELECT">     64.00000000</i>
   <i type="int" name="TURBO">     0</i>
   <i type="int" name="IRESTART">     0</i>
   <i type="int" name="NREBOOT">     0</i>
   <i type="int" name="NMIN">     0</i>
   <i name="EREF">      0.00000000</i>
   <separator name="electronic smearing" >
    <i type="int" name="ISMEAR">    -1</i>
    <i name="SIGMA">      0.02580000</i>
    <i name="KSPACING">      0.50000000</i>
    <i type="logical" name="KGAMMA"> T  </i>
    <i type="logical" name="KBLOWUP"> T  </i>
   </separator>
   <separator name="electronic projectors" >
    <i type="logical" name="LREAL"> F  </i>
    <v name="ROPT">      0.00000000</v>
    <i type="int" name="LMAXPAW">  -100</i>
    <i type="int" name="LMAXMIX">     2</i>
    <i type="logical" name="NLSPLINE"> F  </i>
   </separator>
   <separator name="electronic startup" >
    <i type="int" name="ISTART">     0</i>
    <i type="int" name="ICHARG">     2</i>
    <i type="int" name="INIWAV">     1</i>
   </separator>
   <separator name="electronic spin" >
    <i type="int" name="ISPIN">     1</i>
    <i type="logical" name="LNONCOLLINEAR"> F  </i>
    <v name="MAGMOM">      1.00000000      1.00000000      1.00000000      1.00000000      1.00000000      1.00000000      1.00000000      1.00000000      1.00000000      1.00000000      1.00000000      1.00000000      1.00000000      1.00000000      1.00000000      1.00000000</v>
    <i name="NUPDOWN">     -1.00000000</i>
    <i type="logical" name="LSORBIT"> F  </i>
    <v name="SAXIS">      0.00000000      0.00000000      1.00000000</v>
    <i type="logical" name="LSPIRAL"> F  </i>
    <v name="QSPIRAL">      0.00000000      0.00000000      0.00000000</v>
    <i type="logical" name="LZEROZ"> F  </i>
   </separator>
   <separator name="electronic exchange-correlation" >
    <i type="logical" name="LASPH"> F  </i>
   </separator>
   <separator name="electronic convergence" >
    <i type="int" name="NELM">    60</i>
    <i type="int" name="NELMDL">    -5</i>
    <i type="int" name="NELMIN">     2</i>
    <i name="ENINI">    300.00000000</i>
    <separator name="electronic convergence detail" >
     <i type="logical" name="LDIAG"> T  </i>
     <i type="logical" name="LSUBROT"> F  </i>
     <i name="WEIMIN">      0.00100000</i>
     <i name="EBREAK">      0.00000001</i>
     <i name="DEPER">      0.30000000</i>
     <i type="int" name="NRMM">     4</i>
     <i name="TIME">      0.40000000</i>
    </separator>
   </separator>
   <separator name="electronic mixer" >
    <i name="AMIX">      0.40000000</i>
    <i name="BMIX">      1.00000000</i>
    <i name="AMIN">      0.10000000</i>
    <i name="AMIX_MAG">      1.60000000</i>
    <i name="BMIX_MAG">      1.00000000</i>
    <separator name="electronic mixer details" >
     <i type="int" name="IMIX">     4</i>
     <i type="logical" name="MIXFIRST"> F  </i>
     <i type="int" name="MAXMIX">   -45</i>
     <i name="WC">    100.00000000</i>
     <i type="int" name="INIMIX">     1</i>
     <i type="int" name="MIXPRE">     1</i>
     <i type="int" name="MREMOVE">     5</i>
    </separator>
   </separator>
   <separator name="electronic dipolcorrection" >
    <i type="logical" name="LDIPOL"> F  </i>
    <i type="logical" name="LMONO"> F  </i>
    <i type="int" name="IDIPOL">     0</i>
    <i name="EPSILON">      1.00000000</i>
    <v name="DIPOL">   -100.00000000   -100.00000000   -100.00000000</v>
    <i name="EFIELD">      0.00000000</i>
    <i type="logical" name="LVACPOTAV"> F  </i>
   </separator>
  </separator>
  <separator name="grids" >
   <i type="int" name="NGX">    36</i>
   <i type="int" name="NGY">    36</i>
   <i type="int" name="NGZ">    36</i>
   <i type="int" name="NGXF">    72</i>
   <i type="int" name="NGYF">    72</i>
   <i type="int" name="NGZF">    72</i>
   <i type="logical" name="ADDGRID"> F  </i>
  </separator>
  <separator name="ionic" >
   <i type="int" name="NSW"> 10000</i>
   <i type="int" name="IBRION">     0</i>
   <i type="int" name="MDALGO">     3</i>
   <i type="int" name="ISIF">     3</i>
   <i name="PSTRESS">      0.00000000</i>
   <i name="EDIFFG">      0.00001000</i>
   <i type="int" name="NFREE">     0</i>
   <i name="POTIM">      2.00000000</i>
   <i name="SMASS">     -3.00000000</i>
   <i name="SCALEE">      1.00000000</i>
  </separator>
  <separator name="ionic md" >
   <i name="TEBEG">    400.00000000</i>
   <i name="TEEND">    400.00000000</i>
   <i type="int" name="NBLOCK">     1</i>
   <i type="int" name="KBLOCK"> 10000</i>
   <i type="int" name="NPACO">   256</i>
   <i name="APACO">     10.00000000</i>
  </separator>
  <separator name="symmetry" >
   <i type="int" name="ISYM">     0</i>
   <i name="SYMPREC">      0.00001000</i>
  </separator>
  <separator name="dos" >
   <i type="int" name="LORBIT">     0</i>
   <v name="RWIGS">     -1.00000000</v>
   <i type="int" name="NEDOS">   301</i>
   <i name="EMIN">     10.00000000</i>
   <i name="EMAX">    -10.00000000</i>
   <i name="EFERMI">      0.00000000</i>
  </separator>
  <separator name="writing" >
   <i type="int" name="NWRITE">     2</i>
   <i type="logical" name="LWAVE"> F  </i>
   <i type="logical" name="LDOWNSAMPLE"> F  </i>
   <i type="logical" name="LCHARG"> F  </i>
   <i type="logical" name="LPARD"> F  </i>
   <i type="logical" name="LVTOT"> F  </i>
   <i type="logical" name="LVHAR"> F  </i>
   <i type="logical" name="LELF"> F  </i>
   <i type="logical" name="LOPTICS"> F  </i>
   <v name="STM">      0.00000000      0.00000000      0.00000000      0.00000000      0.00000000      0.00000000      0.00000000</v>
  </separator>
  <separator name="performance" >
   <i type="int" name="NPAR">     4</i>
   <i type="int" name="NSIM">     4</i>
   <i type="int" name="NBLK">    -1</i>
   <i type="logical" name="LPLANE"> T  </i>
   <i type="logical" name="LSCALAPACK"> T  </i>
   <i type="logical" name="LSCAAWARE"> F  </i>
   <i type="logical" name="LSCALU"> F  </i>
   <i type="logical" name="LASYNC"> F  </i>
   <i type="logical" name="LORBITALREAL"> F  </i>
  </separator>
  <separator name="miscellaneous" >
   <i type="int" name="IDIOT">     3</i>
   <i type="int" name="PHON_NSTRUCT">    -1</i>
   <i type="logical" name="LMUSIC"> F  </i>
   <v name="POMASS">     28.08500000</v>
   <v name="DARWINR">      0.00000000</v>
   <v name="DARWINV">      1.00000000</v>
   <i type="logical" name="LCORR"> T  </i>
  </separator>
  <i type="logical" name="GGA_COMPAT"> T  </i>
  <i type="logical" name="LBERRY"> F  </i>
  <i type="int" name="ICORELEVEL">     0</i>
  <i type="logical" name="LDAU"> F  </i>
  <i type="int" name="I_CONSTRAINED_M">     0</i>
  <separator name="electronic exchange-correlation" >
   <i type="string" name="GGA    ">PE</i>
   <i type="string" name="XC_C">1</i>
   <i type="int" name="VOSKOWN">     0</i>
   <i type="logical" name="LHFCALC"> F  </i>
   <i type="string" name="PRECFOCK"></i>
   <i type="logical" name="LSYMGRAD"> F  </i>
   <i type="logical" name="LHFONE"> F  </i>
   <i type="logical" name="LRHFCALC"> F  </i>
   <i type="logical" name="LTHOMAS"> F  </i>
   <i type="logical" name="LMODELHF"> F  </i>
   <i type="logical" name="LFOCKACE"> F  </i>
   <i name="ENCUT4O">     -1.00000000</i>
   <i type="int" name="EXXOEP">     0</i>
   <i type="int" name="FOURORBIT">     0</i>
   <i name="AEXX">      0.00000000</i>
   <i name="HFALPHA">      0.00000000</i>
   <i name="MCALPHA">      0.00000000</i>
   <i name="ALDAX">      1.00000000</i>
   <i name="AGGAX">      1.00000000</i>
   <i name="AMGGAX">      1.00000000</i>
   <i name="ALDAC">      1.00000000</i>
   <i name="AGGAC">      1.00000000</i>
   <i name="AMGGAC">      1.00000000</i>
   <i type="int" name="NKREDX">     1</i>
   <i type="int" name="NKREDY">     1</i>
   <i type="int" name="NKREDZ">     1</i>
   <i type="logical" name="SHIFTRED"> F  </i>
   <i type="logical" name="ODDONLY"> F  </i>
   <i type="logical" name="EVENONLY"> F  </i>
   <i type="int" name="LMAXFOCK">     0</i>
   <i type="int" name="NMAXFOCKAE">     0</i>
   <i type="logical" name="LFOCKAEDFT"> F  </i>
   <i name="HFSCREEN">      0.00000000</i>
   <i name="HFSCREENC">      0.00000000</i>
   <i type="int" name="NBANDSGWLOW">     0</i>
  </separator>
  <separator name="vdW DFT" >
   <i type="logical" name="LUSE_VDW"> F  </i>
   <i type="int" name="IVDW_NL">    -1</i>
   <i type="logical" name="LSPIN_VDW"> F  </i>
   <i name="ZAB_VDW">     -0.84910000</i>
   <i name="GAMMA_VDW">      1.39626340</i>
   <i name="ALPHA_VDW">      0.00000000</i>
   <i name="PARAM1">      0.12340000</i>
   <i name="PARAM2">      1.00000000</i>
   <i name="BPARAM">      6.30000000</i>
   <i name="CPARAM">      0.00930000</i>
  </separator>
  <separator name="model GW" >
   <i type="int" name="MODEL_GW">     0</i>
   <i name="MODEL_EPS0">     12.26648785</i>
   <i name="MODEL_ALPHA">      1.00000000</i>
  </separator>
  <separator name="linear response parameters" >
   <i type="logical" name="LEPSILON"> F  </i>
   <i type="logical" name="LRPA"> F  </i>
   <i type="logical" name="LNABLA"> F  </i>
   <i type="logical" name="LVEL"> F  </i>
   <i name="CSHIFT">      0.10000000</i>
   <i name="OMEGAMAX">     -1.00000000</i>
   <i name="DEG_THRESHOLD">      0.00200000</i>
   <i name="RTIME">     -0.10000000</i>
   <i name="WPLASMAI">      0.00000000</i>
   <v name="DFIELD">      0.00000000      0.00000000      0.00000000</v>
   <v name="WPLASMA">      0.00000000      0.00000000      0.00000000      0.00000000      0.00000000      0.00000000      0.00000000      0.00000000      0.00000000</v>
  </separator>
  <separator name="orbital magnetization" >
   <i type="logical" name="NUCIND"> F  </i>
   <v name="MAGPOS">      0.00000000      0.00000000      0.00000000</v>
   <i type="logical" name="LNICSALL"> T  </i>
   <i type="logical" name="ORBITALMAG"> F  </i>
   <i type="logical" name="LMAGBLOCH"> F  </i>
   <i type="logical" name="LCHIMAG"> F  </i>
   <i type="logical" name="LGAUGE"> T  </i>
   <i type="int" name="MAGATOM">     0</i>
   <v name="MAGDIPOL">      0.00000000      0.00000000      0.00000000</v>
   <v name="AVECCONST">      0.00000000      0.00000000      0.00000000</v>
  </separator>
  <separator name="response functions" >
   <i type="logical" name="LALL_IN_ONE"> F  </i>
   <i type="int" name="IALL_IN_ONE">    -1</i>
   <i type="int" name="NBANDS_WAVE">    -1</i>
   <i type="logical" name="LFINITE_TEMPERATURE"> F  </i>
   <i type="logical" name="LADDER"> F  </i>
   <i type="logical" name="LRPAFORCE"> F  </i>
   <i type="logical" name="LFXC"> F  </i>
   <i type="logical" name="LHARTREE"> T  </i>
   <i type="int" name="IBSE">     2</i>
   <v type="int" name="KPOINT">    -1     0     0     0</v>
   <i type="logical" name="LTCTC"> F  </i>
   <i type="logical" name="LTCTE"> F  </i>
   <i type="logical" name="LTETE"> F  </i>
   <i type="logical" name="LTRIPLET"> F  </i>
   <i type="logical" name="LFXCEPS"> F  </i>
   <i type="logical" name="LFXHEG"> F  </i>
   <i type="int" name="NATURALO">     2</i>
   <i type="logical" name="LHOLEGF"> F  </i>
   <i type="logical" name="L2ORDER"> F  </i>
   <i type="logical" name="LDMP1"> F  </i>
   <i type="logical" name="LMP2LT"> F  </i>
   <i type="logical" name="LSMP2LT"> F  </i>
   <i type="logical" name="LGWLF"> F  </i>
   <i name="ENCUTGW">     -1.60000002</i>
   <i name="ENCUTGWSOFT">     -1.60000002</i>
   <i name="ENCUTLF">     -1.00000000</i>
   <i type="logical" name="ESF_SPLINES"> F  </i>
   <i name="ESF_CONV">      0.01000000</i>
   <i type="int" name="ESF_NINTER">    15</i>
   <i type="int" name="LMAXMP2">    -1</i>
   <i name="SCISSOR">      0.00000000</i>
   <i type="int" name="NOMEGA">     0</i>
   <i type="int" name="NOMEGAR">     0</i>
   <i type="int" name="NBANDSGW">    -1</i>
   <i type="int" name="NBANDSO">    -1</i>
   <i type="int" name="NBANDSV">    -1</i>
   <i type="int" name="NELMGW">     1</i>
   <i type="int" name="NELMHF">     1</i>
   <i type="int" name="DIM">     3</i>
   <i type="int" name="IESPILON">     4</i>
   <i type="int" name="ANTIRES">     0</i>
   <i name="OMEGAMAX">    -30.00000000</i>
   <i name="OMEGAMIN">    -30.00000000</i>
   <i name="OMEGATL">   -200.00000000</i>
   <i type="int" name="OMEGAGRID">     0</i>
   <i name="CSHIFT">     -0.10000000</i>
   <i type="logical" name="LSELFENERGY"> F  </i>
   <i type="logical" name="LSPECTRAL"> F  </i>
   <i type="logical" name="LSPECTRALGW"> F  </i>
   <i type="logical" name="LSINGLES"> F  </i>
   <i type="logical" name="LFERMIGW"> F  </i>
   <i type="logical" name="ODDONLYGW"> F  </i>
   <i type="logical" name="EVENONLYGW"> F  </i>
   <i type="int" name="NKREDLFX">     1</i>
   <i type="int" name="NKREDLFY">     1</i>
   <i type="int" name="NKREDLFZ">     1</i>
   <i type="int" name="MAXMEM">  2800</i>
   <i type="int" name="TELESCOPE">     0</i>
   <i type="int" name="NTAUPAR">    -1</i>
   <i type="int" name="NOMEGAPAR">    -1</i>
   <i name="DAMP_NEWTON">      0.80000001</i>
   <i name="LAMBDA">      1.00000000</i>
  </separator>
  <separator name="External order field" >
   <i name="OFIELD_KAPPA">      0.00000000</i>
   <v name="OFIELD_K">      0.00000000      0.00000000      0.00000000</v>
   <i name="OFIELD_Q6_NEAR">      0.00000000</i>
   <i name="OFIELD_Q6_FAR">      0.00000000</i>
   <i name="OFIELD_A">      0.00000000</i>
  </separator>
  <separator name="optional k-points parameters" >
   <i type="int" name="KPOINTS_OPT_MODE">     1</i>
   <i type="logical" name="LKPOINTS_OPT"> F  </i>
  </separator>
 </parameters>
 <atominfo>
  <atoms>      16 </atoms>
  <types>       1 </types>
  <array name="atoms" >
   <dimension dim="1">ion</dimension>
   <field type="string">element</field>
   <field type="int">atomtype</field>
   <set>
    <rc><c>Si</c><c>   1</c></rc>
    <rc><c>Si</c><c>   1</c></rc>
    <rc><c>Si</c><c>   1</c></rc>
    <rc><c>Si</c><c>   1</c></rc>
    <rc><c>Si</c><c>   1</c></rc>
    <rc><c>Si</c><c>   1</c></rc>
    <rc><c>Si</c><c>   1</c></rc>
    <rc><c>Si</c><c>   1</c></rc>
    <rc><c>Si</c><c>   1</c></rc>
    <rc><c>Si</c><c>   1</c></rc>
    <rc><c>Si</c><c>   1</c></rc>
    <rc><c>Si</c><c>   1</c></rc>
    <rc><c>Si</c><c>   1</c></rc>
    <rc><c>Si</c><c>   1</c></rc>
    <rc><c>Si</c><c>   1</c></rc>
    <rc><c>Si</c><c>   1</c></rc>
   </set>
  </array>
  <array name="atomtypes" >
   <dimension dim="1">type</dimension>
   <field type="int">atomspertype</field>
   <field type="string">element</field>
   <field>mass</field>
   <field>valence</field>
   <field type="string">pseudopotential</field>
   <set>
    <rc><c>  16</c><c>Si</c><c>     28.08500000</c><c>      4.00000000</c><c>  PAW_PBE Si 05Jan2001                  </c></rc>
   </set>
  </array>
 </atominfo>
 <structure name="initialpos" >
  <crystal>
   <varray name="basis" >
    <v>      -5.46872800      -5.46872800       0.00000000 </v>
    <v>      -5.46872800       0.00000000      -5.46872800 </v>
    <v>       0.00000000      -5.46872800      -5.46872800 </v>
   </varray>
   <i name="volume">    327.10634279 </i>
   <varray name="rec_basis" >
    <v>      -0.09142894      -0.09142894       0.09142894 </v>
    <v>      -0.09142894       0.09142894      -0.09142894 </v>
    <v>       0.09142894      -0.09142894      -0.09142894 </v>
   </varray>
  </crystal>
  <varray name="positions" >
   <v>       0.12500000       0.12500000       0.12500000 </v>
   <v>       0.12500000       0.12500000       0.62500000 </v>
   <v>       0.12500000       0.62500000       0.12500000 </v>
   <v>       0.12500000       0.62500000       0.62500000 </v>
   <v>       0.62500000       0.12500000       0.12500000 </v>
   <v>       0.62500000       0.12500000       0.62500000 </v>
   <v>       0.62500000       0.62500000       0.12500000 </v>
   <v>       0.62500000       0.62500000       0.62500000 </v>
   <v>       0.25000000       0.25000000       0.25000000 </v>
   <v>       0.25000000       0.25000000       0.75000000 </v>
   <v>       0.25000000       0.75000000       0.25000000 </v>
   <v>       0.25000000       0.75000000       0.75000000 </v>
   <v>       0.75000000       0.25000000       0.25000000 </v>
   <v>       0.75000000       0.25000000       0.75000000 </v>
   <v>       0.75000000       0.75000000       0.25000000 </v>
   <v>       0.75000000       0.75000000       0.75000000 </v>
  </varray>
  <varray name="velocities" >
   <v>      -0.00035298       0.00106145      -0.00028722 </v>
   <v>       0.00136331      -0.00094554       0.00059591 </v>
   <v>       0.00013880      -0.00040808      -0.00197122 </v>
   <v>       0.00151980      -0.00134464      -0.00060289 </v>
   <v>       0.00059772      -0.00001086      -0.00060687 </v>
   <v>      -0.00140840       0.00262660      -0.00040124 </v>
   <v>      -0.00080334       0.00091343       0.00061052 </v>
   <v>      -0.00006335      -0.00106523       0.00131586 </v>
   <v>      -0.00100391       0.00063945      -0.00001149 </v>
   <v>       0.00098499      -0.00146367      -0.00063764 </v>
   <v>       0.00022962       0.00013306      -0.00036173 </v>
   <v>      -0.00015268       0.00026952      -0.00081417 </v>
   <v>       0.00056516      -0.00091024      -0.00095814 </v>
   <v>      -0.00224506       0.00161680       0.00280488 </v>
   <v>       0.00011008      -0.00108427       0.00049755 </v>
   <v>       0.00052024      -0.00002779       0.00082788 </v>
  </varray>
 </structure>
 <calculation>
  <scstep>
   <time name="dav">  944.23  198.60</time>
   <time name="total">  957.38  201.82</time>
   <energy>
    <i name="alphaZ">     26.34544293 </i>
    <i name="ewald">  -1815.55936149 </i>
    <i name="hartreedc">    -90.58711267 </i>
    <i name="XCdc">   -149.48128047 </i>
    <i name="pawpsdc">   1409.98079384 </i>
    <i name="pawaedc">  -1128.48828464 </i>
    <i name="eentropy">     -0.01416601 </i>
    <i name="bandstr">    204.89858001 </i>
    <i name="atom">   1649.03748697 </i>
    <i name="e_fr_energy">    106.13209847 </i>
    <i name="e_wo_entrp">    106.14626448 </i>
    <i name="e_0_energy">    106.13918148 </i>
   </energy>
  </scstep>
  <scstep>
   <time name="dav"> 1061.37  231.63</time>
   <time name="total"> 1061.37  231.63</time>
   <energy>
    <i name="e_fr_energy">    -76.74272774 </i>
    <i name="e_wo_entrp">    -76.74268705 </i>
    <i name="e_0_energy">    -76.74270739 </i>
   </energy>
  </scstep>
  <scstep>
   <time name="dav"> 1052.45  230.92</time>
   <time name="total"> 1052.45  230.93</time>
   <energy>
    <i name="e_fr_energy">    -86.57562342 </i>
    <i name="e_wo_entrp">    -86.57562342 </i>
    <i name="e_0_energy">    -86.57562342 </i>
   </energy>
  </scstep>
  <scstep>
   <time name="dav"> 1022.07  224.97</time>
   <time name="total"> 1022.07  224.97</time>
   <energy>
    <i name="e_fr_energy">    -86.78010300 </i>
    <i name="e_wo_entrp">    -86.78010300 </i>
    <i name="e_0_energy">    -86.78010300 </i>
   </energy>
  </scstep>
  <scstep>
   <time name="dav"> 1002.71  221.68</time>
   <time name="total"> 1018.84  226.10</time>
   <energy>
    <i name="e_fr_energy">    -86.78554031 </i>
    <i name="e_wo_entrp">    -86.78554031 </i>
    <i name="e_0_energy">    -86.78554031 </i>
   </energy>
  </scstep>
  <scstep>
   <time name="dav">  841.90  196.95</time>
   <time name="total">  874.89  204.84</time>
   <energy>
    <i name="e_fr_energy">    -85.73726300 </i>
    <i name="e_wo_entrp">    -85.73726298 </i>
    <i name="e_0_energy">    -85.73726299 </i>
   </energy>
  </scstep>
  <scstep>
   <time name="dav">  842.67  191.72</time>
   <time name="total">  872.35  199.34</time>
   <energy>
    <i name="e_fr_energy">    -85.25752107 </i>
    <i name="e_wo_entrp">    -85.25752004 </i>
    <i name="e_0_energy">    -85.25752056 </i>
   </energy>
  </scstep>
  <scstep>
   <time name="dav">  942.67  212.23</time>
   <time name="total">  973.16  220.22</time>
   <energy>
    <i name="e_fr_energy">    -85.26883516 </i>
    <i name="e_wo_entrp">    -85.26883459 </i>
    <i name="e_0_energy">    -85.26883487 </i>
   </energy>
  </scstep>
  <scstep>
   <time name="dav">  864.76  199.20</time>
   <time name="total">  888.94  206.28</time>
   <energy>
    <i name="e_fr_energy">    -85.27125794 </i>
    <i name="e_wo_entrp">    -85.27125739 </i>
    <i name="e_0_energy">    -85.27125766 </i>
   </energy>
  </scstep>
  <scstep>
   <time name="dav">  902.34  210.81</time>
   <time name="total">  938.81  218.39</time>
   <energy>
    <i name="e_fr_energy">    -85.27178971 </i>
    <i name="e_wo_entrp">    -85.27178921 </i>
    <i name="e_0_energy">    -85.27178946 </i>
   </energy>
  </scstep>
  <scstep>
   <time name="dav">  868.60  194.18</time>
   <time name="total">  900.67  201.15</time>
   <energy>
    <i name="e_fr_energy">    -85.27179070 </i>
    <i name="e_wo_entrp">    -85.27179018 </i>
    <i name="e_0_energy">    -85.27179044 </i>
   </energy>
  </scstep>
  <scstep>
   <time name="dav">  844.85  187.06</time>
   <time name="total">  877.00  194.39</time>
   <energy>
    <i name="e_fr_energy">    -85.27179360 </i>
    <i name="e_wo_entrp">    -85.27179309 </i>
    <i name="e_0_energy">    -85.27179335 </i>
   </energy>
  </scstep>
  <scstep>
   <time name="dav">  642.72  120.35</time>
   <time name="total">  659.67  124.06</time>
   <energy>
    <i name="alphaZ">     26.34544293 </i>
    <i name="ewald">  -1815.55936149 </i>
    <i name="hartreedc">   -123.94727238 </i>
    <i name="XCdc">   -144.14159734 </i>
    <i name="pawpsdc">   7071.75377892 </i>
    <i name="pawaedc">  -6791.98942557 </i>
    <i name="eentropy">     -0.00000051 </i>
    <i name="bandstr">     43.22915557 </i>
    <i name="atom">   1649.03748697 </i>
    <i name="e_fr_energy">    -85.27179288 </i>
    <i name="e_wo_entrp">    -85.27179237 </i>
    <i name="e_0_energy">    -85.27179263 </i>
   </energy>
  </scstep>
  <structure>
   <crystal>
    <varray name="basis" >
     <v>      -5.46872800      -5.46872800       0.00000000 </v>
     <v>      -5.46872800       0.00000000      -5.46872800 </v>
     <v>       0.00000000      -5.46872800      -5.46872800 </v>
    </varray>
    <i name="volume">    327.10634279 </i>
    <varray name="rec_basis" >
     <v>      -0.09142894      -0.09142894       0.09142894 </v>
     <v>      -0.09142894       0.09142894      -0.09142894 </v>
     <v>       0.09142894      -0.09142894      -0.09142894 </v>
    </varray>
   </crystal>
   <varray name="positions" >
    <v>       0.12500000       0.12500000       0.12500000 </v>
    <v>       0.12500000       0.12500000       0.62500000 </v>
    <v>       0.12500000       0.62500000       0.12500000 </v>
    <v>       0.12500000       0.62500000       0.62500000 </v>
    <v>       0.62500000       0.12500000       0.12500000 </v>
    <v>       0.62500000       0.12500000       0.62500000 </v>
    <v>       0.62500000       0.62500000       0.12500000 </v>
    <v>       0.62500000       0.62500000       0.62500000 </v>
    <v>       0.25000000       0.25000000       0.25000000 </v>
    <v>       0.25000000       0.25000000       0.75000000 </v>
    <v>       0.25000000       0.75000000       0.25000000 </v>
    <v>       0.25000000       0.75000000       0.75000000 </v>
    <v>       0.75000000       0.25000000       0.25000000 </v>
    <v>       0.75000000       0.25000000       0.75000000 </v>
    <v>       0.75000000       0.75000000       0.25000000 </v>
    <v>       0.75000000       0.75000000       0.75000000 </v>
   </varray>
  </structure>
  <varray name="forces" >
   <v>      -0.00000137      -0.00000068       0.00000436 </v>
   <v>      -0.00000234      -0.00000568      -0.00000030 </v>
   <v>      -0.00000429      -0.00000360      -0.00000237 </v>
   <v>      -0.00000287      -0.00000217      -0.00000103 </v>
   <v>      -0.00000369      -0.00000137      -0.00000367 </v>
   <v>       0.00000322      -0.00000115      -0.00000606 </v>
   <v>      -0.00000193       0.00000244       0.00000012 </v>
   <v>      -0.00000145      -0.00000102      -0.00000696 </v>
   <v>       0.00000499       0.00000506       0.00000085 </v>
   <v>       0.00000628       0.00000006       0.00000075 </v>
   <v>       0.00000558       0.00000903      -0.00000084 </v>
   <v>       0.00000528       0.00000833      -0.00000078 </v>
   <v>      -0.00000018       0.00000232       0.00000971 </v>
   <v>       0.00000452      -0.00000269       0.00000533 </v>
   <v>      -0.00000091      -0.00000198       0.00000545 </v>
   <v>      -0.00000030       0.00000196       0.00000261 </v>
  </varray>
  <varray name="stress" >
   <v>     -23.96346166       0.00005428      -0.00020016 </v>
   <v>       0.00005433     -23.96347336      -0.00008715 </v>
   <v>      -0.00020016      -0.00008709     -23.96344978 </v>
  </varray>
  <energy>
   <i name="e_fr_energy">    -88.77992882 </i>
   <i name="e_wo_entrp">    -88.77992831 </i>
   <i name="e_0_energy">    -88.77992857 </i>
   <i name="kinetic">      0.82432701 </i>
   <i name="lattice kinetic">      0.07699089 </i>
   <i name="nosepot">      0.00000000 </i>
   <i name="nosekinetic">      0.00000000 </i>
   <i name="total">    -87.87861092 </i>
  </energy>
  <time name="totalsc">12241.74 2727.96</time>
 </calculation>
 <calculation>
  <scstep>
   <time name="dav">  873.61  195.04</time>
   <time name="total">  910.97  202.92</time>
   <energy>
    <i name="alphaZ">     26.42896632 </i>
    <i name="ewald">  -1817.43391212 </i>
    <i name="hartreedc">   -124.09325427 </i>
    <i name="XCdc">   -144.01855998 </i>
    <i name="pawpsdc">   7071.96535659 </i>
    <i name="pawaedc">  -6792.20096124 </i>
    <i name="eentropy">     -0.00000101 </i>
    <i name="bandstr">     45.06444510 </i>
    <i name="atom">   1649.03748697 </i>
    <i name="e_fr_energy">    -85.25043364 </i>
    <i name="e_wo_entrp">    -85.25043263 </i>
    <i name="e_0_energy">    -85.25043314 </i>
   </energy>
  </scstep>
  <scstep>
   <time name="dav"> 1007.49  227.41</time>
   <time name="total"> 1037.92  235.35</time>
   <energy>
    <i name="e_fr_energy">    -85.25267674 </i>
    <i name="e_wo_entrp">    -85.25267576 </i>
    <i name="e_0_energy">    -85.25267625 </i>
   </energy>
  </scstep>
  <scstep>
   <time name="dav">  933.92  212.05</time>
   <time name="total">  964.82  219.19</time>
   <energy>
    <i name="e_fr_energy">    -85.25215901 </i>
    <i name="e_wo_entrp">    -85.25215809 </i>
    <i name="e_0_energy">    -85.25215855 </i>
   </energy>
  </scstep>
  <scstep>
   <time name="dav">  886.78  208.74</time>
   <time name="total">  917.10  216.11</time>
   <energy>
    <i name="e_fr_energy">    -85.25206048 </i>
    <i name="e_wo_entrp">    -85.25205959 </i>
    <i name="e_0_energy">    -85.25206003 </i>
   </energy>
  </scstep>
  <scstep>
   <time name="dav">  902.48  206.49</time>
   <time name="total">  934.65  214.76</time>
   <energy>
    <i name="e_fr_energy">    -85.25206613 </i>
    <i name="e_wo_entrp">    -85.25206525 </i>
    <i name="e_0_energy">    -85.25206569 </i>
   </energy>
  </scstep>
  <scstep>
   <time name="dav">  778.80  173.51</time>
   <time name="total">  809.34  180.86</time>
   <energy>
    <i name="e_fr_energy">    -85.25206793 </i>
    <i name="e_wo_entrp">    -85.25206704 </i>
    <i name="e_0_energy">    -85.25206748 </i>
   </energy>
  </scstep>
  <scstep>
   <time name="dav">  619.05  138.42</time>
   <time name="total">  633.69  141.95</time>
   <energy>
    <i name="alphaZ">     26.42896632 </i>
    <i name="ewald">  -1817.43391212 </i>
    <i name="hartreedc">   -123.66367585 </i>
    <i name="XCdc">   -144.02620564 </i>
    <i name="pawpsdc">   7116.76177758 </i>
    <i name="pawaedc">  -6837.02020333 </i>
    <i name="eentropy">     -0.00000089 </i>
    <i name="bandstr">     44.66369847 </i>
    <i name="atom">   1649.03748697 </i>
    <i name="e_fr_energy">    -85.25206848 </i>
    <i name="e_wo_entrp">    -85.25206759 </i>
    <i name="e_0_energy">    -85.25206803 </i>
   </energy>
  </scstep>
  <structure>
   <crystal>
    <varray name="basis" >
     <v>      -5.46248370      -5.45394064       0.00281318 </v>
     <v>      -5.46632072       0.01155530      -5.45476542 </v>
     <v>       0.00000000      -5.46294552      -5.46294552 </v>
    </varray>
    <i name="volume">    326.07258949 </i>
    <varray name="rec_basis" >
     <v>      -0.09158149      -0.09158149       0.09158149 </v>
     <v>      -0.09142120       0.09151720      -0.09151720 </v>
     <v>       0.09123715      -0.09142733      -0.09162411 </v>
    </varray>
   </crystal>
   <varray name="positions" >
    <v>       0.12326431       0.12555167       0.12563347 </v>
    <v>       0.12510087       0.12558744       0.62453415 </v>
    <v>       0.12639761       0.62470642       0.12429538 </v>
    <v>       0.12681975       0.62425299       0.62428026 </v>
    <v>       0.62526038       0.12608564       0.12235858 </v>
    <v>       0.62464569       0.12440662       0.62558083 </v>
    <v>       0.62637963       0.62621638       0.12360574 </v>
    <v>       0.62527893       0.62450384       0.62492712 </v>
    <v>       0.24870527       0.24764950       0.25188824 </v>
    <v>       0.25142123       0.24942664       0.74927635 </v>
    <v>       0.24839651       0.75028932       0.24982103 </v>
    <v>       0.25064529       0.74937019       0.75070923 </v>
    <v>       0.75089383       0.24857579       0.24979002 </v>
    <v>       0.75177698       0.24742063       0.75019308 </v>
    <v>       0.75131201       0.75024067       0.24997857 </v>
    <v>       0.74967240       0.74872931       0.74994744 </v>
   </varray>
  </structure>
  <varray name="forces" >
   <v>      -0.03130762      -0.02469191       0.19191263 </v>
   <v>       0.07363143      -0.16933963       0.06467080 </v>
   <v>       0.18159010      -0.02506864       0.04413787 </v>
   <v>       0.07904654       0.07871193      -0.07219133 </v>
   <v>       0.16781361      -0.16144061      -0.09108948 </v>
   <v>      -0.03818253      -0.04374695       0.17292208 </v>
   <v>       0.21282541      -0.03155352      -0.02316930 </v>
   <v>       0.06208819      -0.03026003       0.10947004 </v>
   <v>      -0.26356082       0.07149362       0.00310748 </v>
   <v>       0.06715757       0.01930655      -0.14115721 </v>
   <v>      -0.19362502      -0.16855620       0.03146217 </v>
   <v>      -0.05118485       0.09339325       0.01744080 </v>
   <v>       0.00064456       0.18090080      -0.20677667 </v>
   <v>      -0.09578872       0.21441738      -0.09378292 </v>
   <v>      -0.01226367       0.07718095       0.00226584 </v>
   <v>      -0.15882364      -0.08085479      -0.00878589 </v>
  </varray>
  <varray name="stress" >
   <v>     -21.35841933       3.02997869      -0.81248099 </v>
   <v>       3.02997872     -21.28234715       2.07663576 </v>
   <v>      -0.81248089       2.07663589     -20.54810307 </v>
  </varray>
