Program started at 
 running    4 mpi-ranks, with   40 threads/rank, on    1 nodes
 distrk:  each k-point on    4 cores,    1 groups
 distr:  one band on    1 cores,    4 groups
 vasp.6.5.0 16Dec24 (build Mar 16 2025 21:55:21) complex                        
  
 POSCAR found type information on POSCAR Si
 POSCAR found :  1 types and      16 ions
 scaLAPACK will be used
 LDA part: xc-table for (Slater+PW92), standard interpolation
 Machine learning selected
 Setting communicators for machine learning
 Initializing machine learning
 POSCAR, INCAR and KPOINTS ok, starting setup
 FFT: planning ... GRIDC
 FFT: planning ... GRID_SOFT
 FFT: planning ... GRID
 WAVECAR not read
 entering main loop
       N       E                     dE             d eps       ncg     rms          rms(c)
DAV:   1     0.106132098473E+03    0.10613E+03   -0.17467E+04   704   0.772E+02
DAV:   2    -0.767427277355E+02   -0.18287E+03   -0.17191E+03   872   0.143E+02
DAV:   3    -0.865756234194E+02   -0.98329E+01   -0.96060E+01   904   0.312E+01
DAV:   4    -0.867801030012E+02   -0.20448E+00   -0.20353E+00   848   0.546E+00
DAV:   5    -0.867855403137E+02   -0.54373E-02   -0.54196E-02   848   0.783E-01    0.140E+01
DAV:   6    -0.857372629994E+02    0.10483E+01   -0.56161E-01   776   0.223E+00    0.864E+00
DAV:   7    -0.852575210684E+02    0.47974E+00   -0.12062E+00   756   0.342E+00    0.509E-01
DAV:   8    -0.852688351599E+02   -0.11314E-01   -0.59661E-02   764   0.821E-01    0.182E-01
DAV:   9    -0.852712579412E+02   -0.24228E-02   -0.30012E-03   808   0.216E-01    0.161E-01
DAV:  10    -0.852717897132E+02   -0.53177E-03   -0.10333E-03   760   0.114E-01    0.573E-02
DAV:  11    -0.852717906952E+02   -0.98205E-06   -0.21622E-05   780   0.177E-02    0.567E-03
DAV:  12    -0.852717936035E+02   -0.29083E-05   -0.33114E-06   688   0.760E-03    0.490E-03
DAV:  13    -0.852717928849E+02    0.71855E-06   -0.36643E-07   404   0.215E-03
      1 T=   367. E= -.87878611E+02 F= -.88779929E+02 E0= -.88779929E+02  EK= 0.90132E+00 SP= 0.00E+00 SK= 0.00E+00
 bond charge predicted
       N       E                     dE             d eps       ncg     rms          rms(c)
DAV:   1    -0.852504336427E+02    0.21360E-01   -0.53387E-01   720   0.259E+00    0.379E-01
DAV:   2    -0.852526767395E+02   -0.22431E-02   -0.34346E-02   856   0.691E-01    0.163E-01
DAV:   3    -0.852521590139E+02    0.51773E-03   -0.13425E-03   824   0.146E-01    0.813E-02
DAV:   4    -0.852520604809E+02    0.98533E-04   -0.50799E-04   820   0.782E-02    0.260E-02
DAV:   5    -0.852520661348E+02   -0.56539E-05   -0.56339E-05   792   0.285E-02    0.164E-02
DAV:   6    -0.852520679267E+02   -0.17918E-05   -0.34753E-06   620   0.700E-03    0.858E-03
DAV:   7    -0.852520684765E+02   -0.54988E-06   -0.13841E-06   408   0.440E-03

===================================================================================
=   BAD TERMINATION OF ONE OF YOUR APPLICATION PROCESSES
=   RANK 0 PID 754731 RUNNING AT node1
=   KILLED BY SIGNAL: 9 (Killed)
===================================================================================
