cd Si                                   
   1.00000000000000     
     5.468728    0.000000    0.000000
     0.000000    5.468728    0.000000
     0.000000    0.000000    5.468728
   Si
     8
Direct
   0.250000  0.750000  0.250000
   0.000000  0.000000  0.500000
   0.250000  0.250000  0.750000
   0.000000  0.500000  0.000000
   0.750000  0.750000  0.750000
   0.500000  0.000000  0.000000
   0.750000  0.250000  0.250000
   0.500000  0.500000  0.500000
 
   24   24   24
 0.94483      1.2958      2.4103      4.7160      8.9528      15.926      26.606      41.403      57.895      62.739    
  36.689     -9.2127     -32.812     -9.2126      36.690      62.741      57.897      41.404      26.606      15.926    
  8.9523      4.7156      2.4100      1.2958      1.2958      1.6614      2.8057      5.1324      9.3719      16.311    
  26.864      41.439      57.997      65.757      47.210      10.280     -9.2127      10.278      47.208      65.755    
  57.996      41.439      26.864      16.311      9.3718      5.1324      2.8056      1.6614      2.4103      2.8057    
  4.0179      6.3880      10.592      17.345      27.368      40.957      56.693      68.759      65.044      47.210    
  36.691      47.208      65.041      68.756      56.691      40.956      27.367      17.345      10.592      6.3881    
  4.0180      2.8057      4.7162      5.1326      6.3882      8.7211      12.678      18.835      27.615      39.024    
  52.020      63.602      68.760      65.759      62.743      65.756      68.756      63.598      52.017      39.023    
  27.615      18.835      12.678      8.7211      6.3882      5.1326      8.9533      9.3724      10.593      12.678    
  15.939      20.770      27.374      35.516      44.306      52.020      56.694      57.999      57.899      57.997    
  56.691      52.017      44.304      35.515      27.374      20.770      15.939      12.678      10.592      9.3721    
  15.927      16.312      17.346      18.835      20.770      23.370      26.875      31.148      35.516      39.024    
  40.958      41.441      41.406      41.439      40.956      39.023      35.515      31.148      26.875      23.371    
  20.769      18.834      17.344      16.311      26.608      26.865      27.368      27.615      27.373      26.874    
  26.618      26.874      27.373      27.615      27.368      26.865      26.608      26.864      27.367      27.614    
  27.373      26.875      26.619      26.874      27.372      27.613      27.366      26.864      41.406      41.440    
  40.957      39.023      35.514      31.146      26.872      23.368      20.768      18.834      17.345      16.311    
  15.927      16.311      17.345      18.834      20.769      23.370      26.874      31.146      35.513      39.020    
  40.954      41.438      57.898      57.998      56.692      52.017      44.302      35.513      27.370      20.767    
  15.937      12.676      10.592      9.3719      8.9531      9.3720      10.592      12.677      15.939      20.769    
  27.372      35.512      44.300      52.013      56.687      57.994      62.741      65.756      68.756      63.597    
  52.015      39.020      27.611      18.832      12.675      8.7196      6.3873      5.1322      4.7160      5.1325    
  6.3880      8.7207      12.677      18.833      27.612      39.019      52.012      63.591      68.750      65.752    
  36.690      47.208      65.040      68.754      56.688      40.953      27.364      17.342      10.590      6.3869    
  4.0173      2.8054      2.4102      2.8056      4.0179      6.3878      10.592      17.344      27.365      40.952    
  56.685      68.749      65.034      47.205     -9.2126      10.279      47.207      65.753      57.994      41.437    
  26.862      16.310      9.3709      5.1318      2.8053      1.6613      1.2958      1.6614      2.8056      5.1322    
  9.3714      16.310      26.862      41.436      57.992      65.750      47.204      10.277     -32.812     -9.2125    
  36.690      62.740      57.896      41.404      26.606      15.926      8.9527      4.7158      2.4102      1.2959    
 0.94486      1.2958      2.4102      4.7158      8.9525      15.926      26.606      41.403      57.896      62.740    
  36.690     -9.2126     -9.2126      10.278      47.208      65.755      57.996      41.439      26.864      16.311    
  9.3722      5.1326      2.8057      1.6614      1.2958      1.6614      2.8056      5.1322      9.3716      16.311    
  26.864      41.439      57.997      65.757      47.210      10.280      36.691      47.208      65.040      68.755    
  56.691      40.956      27.368      17.345      10.593      6.3882      4.0180      2.8056      2.4102      2.8056    
  4.0179      6.3878      10.592      17.345      27.367      40.956      56.693      68.759      65.045      47.211    
  62.743      65.755      68.755      63.597      52.017      39.023      27.615      18.835      12.678      8.7210    
  6.3880      5.1325      4.7161      5.1326      6.3881      8.7209      12.677      18.834      27.615      39.024    
  52.019      63.602      68.760      65.759      57.899      57.997      56.690      52.017      44.304      35.516    
  27.374      20.770      15.939      12.677      10.592      9.3718      8.9532      9.3724      10.593      12.678    
  15.939      20.769      27.373      35.516      44.305      52.020      56.694      58.000      41.406      41.439    
  40.955      39.022      35.515      31.148      26.875      23.370      20.768      18.833      17.344      16.311    
  15.927      16.312      17.346      18.835      20.770      23.370      26.874      31.148      35.516      39.024    
  40.958      41.441      26.608      26.864      27.367      27.614      27.373      26.875      26.619      26.873    
  27.371      27.612      27.365      26.863      26.607      26.865      27.369      27.616      27.373      26.874    
  26.618      26.874      27.373      27.615      27.368      26.865      15.927      16.311      17.345      18.834    
  20.769      23.370      26.873      31.145      35.511      39.019      40.952      41.437      41.405      41.441    
  40.958      39.024      35.515      31.146      26.873      23.368      20.768      18.834      17.345      16.311    
  8.9531      9.3721      10.592      12.677      15.939      20.769      27.371      35.511      44.298      52.011    
  56.685      57.993      57.897      57.998      56.693      52.018      44.303      35.513      27.370      20.767    
  15.937      12.676      10.592      9.3719      4.7160      5.1325      6.3881      8.7208      12.677      18.833    
  27.612      39.018      52.010      63.589      68.747      65.750      62.741      65.757      68.757      63.598    
  52.016      39.020      27.611      18.831      12.675      8.7194      6.3872      5.1322      2.4102      2.8056    
  4.0179      6.3880      10.592      17.344      27.365      40.951      56.684      68.746      65.032      47.204    
  36.690      47.209      65.041      68.755      56.689      40.953      27.364      17.342      10.590      6.3867    
  4.0172      2.8054      1.2958      1.6614      2.8057      5.1324      9.3716      16.310      26.862      41.435    
  57.991      65.748      47.203      10.276     -9.2127      10.279      47.208      65.754      57.995      41.437    
  26.862      16.309      9.3706      5.1315      2.8052      1.6613      1.2958      1.6614      2.8057      5.1326    
  9.3721      16.311      26.864      41.438      57.995      65.754      47.208      10.279     -9.2126      10.279    
  47.209      65.756      57.997      41.439      26.864      16.311      9.3718      5.1322      2.8055      1.6613    
  1.6614      1.8682      2.7950      4.7500      8.3476      14.279      23.361      35.882      49.973      57.423    
  44.387      18.643      10.278      33.851      66.770      78.539      66.203      47.342      31.138      19.294    
  11.347      6.4139      3.6470      2.2158      2.8056      2.7950      3.4989      5.1188      8.1456      13.146    
  20.764      31.227      43.278      52.833      52.052      44.386      47.207      66.769      85.942      86.424    
  70.822      51.944      35.509      23.010      14.306      8.7462      5.4773      3.6470      5.1325      4.7500    
  5.1188      6.3374      8.7568      12.785      18.833      27.054      36.774      46.098      52.833      57.423    
  65.755      78.537      86.423      82.158      69.284      53.673      39.022      27.053      18.306      12.466    
  8.7461      6.4140      9.3720      8.3476      8.1456      8.7568      10.351      13.148      17.347      23.013    
  29.788      36.774      43.278      49.974      57.997      66.202      70.820      69.283      62.205      51.946    
  40.960      31.230      23.736      18.306      14.306      11.346      16.311      14.279      13.146      12.785    
  13.147      14.283      16.316      19.298      23.013      27.054      31.227      35.882      41.439      47.340    
  51.942      53.671      51.946      47.348      41.447      35.887      31.229      27.052      23.008      19.293    
  26.864      23.361      20.763      18.833      17.346      16.316      15.932      16.316      17.347      18.833    
  20.763      23.361      26.864      31.137      35.508      39.020      40.959      41.447      41.415      41.446    
  40.958      39.019      35.507      31.137      41.438      35.881      31.226      27.053      23.011      19.296    
  16.315      14.282      13.147      12.785      13.145      14.278      16.311      19.293      23.009      27.052    
  31.229      35.887      41.446      47.346      51.944      53.669      51.940      47.339      57.994      49.972    
  43.276      36.771      29.785      23.010      17.345      13.146      10.350      8.7558      8.1449      8.3471    
  9.3717      11.346      14.305      18.306      23.735      31.229      40.958      51.944      62.201      69.279    
  70.816      66.198      65.752      57.420      52.829      46.094      36.771      27.051      18.831      12.784    
  8.7554      6.3365      5.1182      4.7495      5.1322      6.4137      8.7459      12.466      18.306      27.052    
  39.020      53.669      69.279      82.152      86.417      78.533      47.205      44.383      52.048      52.829    
  43.275      31.225      20.762      13.145      8.1446      5.1181      3.4984      2.7947      2.8055      3.6469    
  5.4772      8.7459      14.306      23.008      35.507      51.940      70.816      86.417      85.936      66.765    
  10.278      18.642      44.384      57.421      49.972      35.881      23.361      14.278      8.3471      4.7496    
  2.7947      1.8681      1.6614      2.2158      3.6470      6.4138      11.346      19.293      31.137      47.339    
  66.199      78.534      66.767      33.850     -9.2127      10.279      47.209      65.756      57.997      41.439    
  26.865      16.312      9.3721      5.1325      2.8056      1.6614      1.2958      1.6614      2.8056      5.1324    
  9.3717      16.311      26.864      41.438      57.996      65.755      47.209      10.279      10.278      33.851    
  66.770      78.539      66.203      47.342      31.139      19.294      11.347      6.4141      3.6470      2.2158    
  1.6613      1.8681      2.7949      4.7498      8.3472      14.279      23.361      35.882      49.974      57.424    
  44.388      18.643      47.207      66.769      85.942      86.424      70.822      51.944      35.510      23.010    
  14.306      8.7462      5.4772      3.6469      2.8055      2.7949      3.4988      5.1186      8.1453      13.146    
  20.764      31.227      43.278      52.834      52.053      44.387      65.755      78.537      86.422      82.158    
  69.284      53.673      39.022      27.053      18.306      12.466      8.7458      6.4137      5.1323      4.7498    
  5.1187      6.3372      8.7565      12.785      18.833      27.054      36.774      46.098      52.834      57.424    
  57.997      66.201      70.820      69.283      62.205      51.947      40.960      31.230      23.735      18.305    
  14.305      11.346      9.3716      8.3474      8.1455      8.7567      10.351      13.147      17.347      23.013    
  29.788      36.774      43.279      49.974      41.439      47.340      51.942      53.671      51.946      47.348    
  41.448      35.887      31.228      27.051      23.007      19.292      16.311      14.279      13.146      12.785    
  13.148      14.283      16.316      19.298      23.013      27.054      31.228      35.882      26.864      31.137    
  35.508      39.021      40.959      41.447      41.415      41.446      40.957      39.018      35.506      31.136    
  26.863      23.361      20.764      18.833      17.347      16.316      15.932      16.316      17.346      18.833    
  20.763      23.361      16.311      19.293      23.009      27.052      31.229      35.887      41.446      47.346    
  51.942      53.667      51.938      47.337      41.437      35.881      31.227      27.053      23.012      19.297    
  16.315      14.282      13.146      12.784      13.145      14.278      9.3715      11.346      14.306      18.306    
  23.736      31.229      40.958      51.943      62.200      69.277      70.814      66.196      57.993      49.971    
  43.276      36.772      29.786      23.011      17.345      13.146      10.350      8.7556      8.1447      8.3469    
  5.1321      6.4136      8.7459      12.466      18.306      27.052      39.020      53.669      69.277      82.150    
  86.414      78.531      65.750      57.420      52.830      46.095      36.771      27.052      18.831      12.783    
  8.7552      6.3362      5.1179      4.7493      2.8054      3.6469      5.4773      8.7461      14.306      23.009    
  35.507      51.940      70.815      86.415      85.934      66.764      47.204      44.383      52.048      52.830    
  43.276      31.225      20.762      13.144      8.1443      5.1178      3.4982      2.7945      1.6613      2.2158    
  3.6471      6.4140      11.346      19.293      31.137      47.338      66.198      78.533      66.765      33.849    
  10.277      18.641      44.385      57.422      49.972      35.881      23.361      14.278      8.3467      4.7493    
  2.7945      1.8680      2.4101      2.8056      4.0180      6.3882      10.593      17.345      27.368      40.956    
  56.691      68.756      65.041      47.208      36.689      47.207      65.040      68.757      56.692      40.957    
  27.368      17.345      10.592      6.3879      4.0177      2.8055      2.8055      2.7949      3.4989      5.1189    
  8.1457      13.146      20.764      31.227      43.277      52.832      52.050      44.385      47.206      66.768    
  85.942      86.424      70.822      51.944      35.510      23.010      14.306      8.7460      5.4772      3.6469    
  4.0179      3.4989      3.7004      4.6873      6.7703      10.353      15.936      23.734      32.976      41.681    
  47.267      52.049      65.039      85.941      100.29      97.118      81.411      62.208      44.301      29.784    
  19.286      12.400      8.1158      5.4772      6.3880      5.1188      4.6872      5.0403      6.3211      8.7597    
  12.678      18.306      25.382      33.143      41.681      52.830      68.754      86.422      97.116      95.973    
  85.266      69.289      52.020      36.773      25.381      17.654      12.400      8.7459      10.592      8.1454    
  6.7701      6.3210      6.7690      8.1470      10.594      14.307      19.288      25.382      32.975      43.276    
  56.690      70.819      81.408      85.265      81.411      70.827      56.697      43.280      32.977      25.381    
  19.285      14.306      17.344      13.146      10.352      8.7593      8.1468      8.3498      9.3748      11.347    
  14.306      18.306      23.733      31.226      40.955      51.941      62.205      69.287      70.826      66.212    
  58.008      49.979      43.279      36.771      29.782      23.008      27.366      20.763      15.935      12.677    
  10.593      9.3745      8.9573      9.3746      10.593      12.677      15.935      20.763      27.366      35.507    
  44.299      52.018      56.696      58.007      57.912      58.007      56.696      52.018      44.299      35.507    
  40.954      31.225      23.732      18.305      14.306      11.346      9.3742      8.3493      8.1463      8.7589    
  10.352      13.145      17.344      23.008      29.782      36.771      43.279      49.979      58.007      66.211    
  70.825      69.286      62.204      51.940      56.688      43.274      32.973      25.380      19.287      14.305    
  10.592      8.1462      6.7683      6.3205      6.7696      8.1449      10.591      14.305      19.285      25.381    
  32.977      43.280      56.697      70.826      81.409      85.263      81.406      70.817      68.752      52.828    
  41.678      33.140      25.380      18.305      12.677      8.7588      6.3205      5.0398      4.6868      5.1184    
  6.3876      8.7457      12.400      17.654      25.381      36.772      52.019      69.287      85.264      95.970    
  97.113      86.419      65.037      52.047      47.264      41.679      32.974      23.733      15.935      10.352    
  6.7698      4.6869      3.7000      3.4986      4.0177      5.4771      8.1158      12.400      19.286      29.783    
  44.300      62.206      81.408      97.114      100.29      85.938      47.206      44.384      52.048      52.830    
  43.277      31.227      20.764      13.146      8.1455      5.1187      3.4988      2.7948      2.8056      3.6470    
  5.4773      8.7461      14.306      23.009      35.509      51.942      70.820      86.422      85.941      66.768    
  36.690      47.207      65.041      68.757      56.692      40.957      27.368      17.346      10.592      6.3881    
  4.0179      2.8056      2.4102      2.8056      4.0179      6.3880      10.592      17.345      27.367      40.956    
  56.691      68.757      65.042      47.208      47.207      66.769      85.943      86.424      70.823      51.944    
  35.510      23.010      14.306      8.7461      5.4772      3.6469      2.8055      2.7948      3.4988      5.1187    
  8.1454      13.146      20.764      31.227      43.278      52.833      52.052      44.386      65.039      85.941    
  100.29      97.118      81.411      62.208      44.302      29.784      19.286      12.400      8.1156      5.4770    
  4.0177      3.4987      3.7002      4.6871      6.7700      10.352      15.936      23.734      32.976      41.682    
  47.269      52.050      68.755      86.422      97.116      95.973      85.267      69.290      52.021      36.773    
  25.381      17.654      12.399      8.7455      6.3877      5.1185      4.6870      5.0401      6.3209      8.7594    
  12.678      18.306      25.383      33.144      41.682      52.831      56.690      70.819      81.408      85.265    
  81.411      70.828      56.698      43.280      32.977      25.380      19.284      14.305      10.591      8.1451    
  6.7699      6.3209      6.7688      8.1468      10.593      14.307      19.288      25.382      32.976      43.276    
  40.955      51.941      62.205      69.287      70.827      66.212      58.008      49.979      43.278      36.771    
  29.781      23.007      17.344      13.145      10.352      8.7592      8.1467      8.3497      9.3747      11.347    
  14.306      18.306      23.733      31.226      27.366      35.507      44.299      52.019      56.697      58.008    
  57.913      58.007      56.695      52.017      44.297      35.506      27.365      20.762      15.935      12.677    
  10.593      9.3745      8.9573      9.3745      10.593      12.677      15.935      20.762      17.344      23.008    
  29.782      36.772      43.280      49.980      58.008      66.211      70.824      69.285      62.202      51.939    
  40.953      31.224      23.732      18.305      14.306      11.346      9.3742      8.3492      8.1462      8.7587    
  10.352      13.145      10.591      14.305      19.285      25.381      32.978      43.280      56.697      70.826    
  81.408      85.261      81.404      70.815      56.686      43.273      32.973      25.380      19.287      14.306    
  10.592      8.1460      6.7681      6.3202      6.7693      8.1446      6.3873      8.7455      12.400      17.654    
  25.382      36.773      52.020      69.288      85.263      95.969      97.111      86.417      68.750      52.827    
  41.678      33.141      25.381      18.305      12.677      8.7586      6.3203      5.0395      4.6865      5.1181    
  4.0175      5.4770      8.1158      12.400      19.286      29.784      44.301      62.206      81.407      97.113    
  100.28      85.937      65.036      52.046      47.264      41.679      32.974      23.733      15.935      10.352    
  6.7696      4.6866      3.6998      3.4984      2.8054      3.6469      5.4773      8.7463      14.306      23.010    
  35.509      51.943      70.820      86.421      85.940      66.767      47.206      44.383      52.048      52.830    
  43.277      31.227      20.763      13.146      8.1452      5.1184      3.4985      2.7946      4.7160      5.1324    
  6.3881      8.7211      12.678      18.836      27.616      39.024      52.019      63.599      68.756      65.755    
  62.740      65.754      68.755      63.598      52.018      39.024      27.616      18.835      12.678      8.7208    
  6.3878      5.1323      5.1324      4.7499      5.1188      6.3375      8.7570      12.786      18.834      27.054    
  36.773      46.096      52.831      57.421      65.754      78.537      86.423      82.159      69.285      53.673    
  39.022      27.053      18.306      12.466      8.7458      6.4138      6.3879      5.1188      4.6872      5.0403    
  6.3212      8.7598      12.678      18.306      25.382      33.142      41.680      52.830      68.754      86.422    
  97.117      95.974      85.267      69.290      52.020      36.772      25.381      17.653      12.399      8.7458    
  8.7208      6.3373      5.0403      4.6255      5.0416      6.3436      8.7263      12.470      17.659      24.279    
  33.141      46.094      63.596      82.156      95.972      100.97      95.978      82.170      63.608      46.101    
  33.147      24.278      17.653      12.466      12.677      8.7566      6.3210      5.0415      4.6866      5.1219    
  6.3925      8.7483      12.405      17.659      25.381      36.771      52.015      69.281      85.264      95.976    
  97.120      86.432      68.766      52.837      41.686      33.146      25.380      18.305      18.834      12.785    
  8.7593      6.3433      5.1217      4.7536      5.1378      6.4155      8.7480      12.469      18.305      27.052    
  39.021      53.670      69.286      82.167      86.430      78.548      65.768      57.430      52.836      46.100    
  36.771      27.052      27.614      18.832      12.677      8.7256      6.3921      5.1376      4.7242      5.1377    
  6.3922      8.7256      12.677      18.832      27.613      39.019      52.018      63.606      68.765      65.768    
  62.759      65.768      68.765      63.606      52.018      39.020      39.022      27.052      18.305      12.469    
  8.7476      6.4152      5.1376      4.7535      5.1216      6.3430      8.7589      12.784      18.833      27.051    
  36.771      46.100      52.836      57.430      65.768      78.548      86.430      82.168      69.287      53.671    
  52.015      36.770      25.380      17.658      12.404      8.7478      6.3922      5.1217      4.6865      5.0413    
  6.3207      8.7562      12.677      18.305      25.381      33.147      41.687      52.838      68.767      86.432    
  97.120      95.976      85.264      69.281      63.595      46.093      33.140      24.277      17.658      12.469    
  8.7259      6.3434      5.0415      4.6253      5.0401      6.3371      8.7206      12.466      17.654      24.278    
  33.148      46.102      63.609      82.170      95.978      100.97      95.972      82.156      68.753      52.828    
  41.678      33.141      25.381      18.306      12.678      8.7596      6.3211      5.0403      4.6871      5.1187    
  6.3879      8.7459      12.400      17.654      25.382      36.773      52.021      69.290      85.267      95.974    
  97.116      86.421      65.753      57.420      52.829      46.095      36.773      27.054      18.833      12.786    
  8.7569      6.3374      5.1188      4.7499      5.1325      6.4140      8.7461      12.466      18.306      27.053    
  39.022      53.673      69.284      82.159      86.423      78.537      62.741      65.754      68.755      63.599    
  52.019      39.024      27.616      18.835      12.678      8.7209      6.3880      5.1324      4.7161      5.1325    
  6.3881      8.7210      12.678      18.835      27.615      39.024      52.019      63.600      68.757      65.755    
  65.754      78.537      86.423      82.159      69.285      53.674      39.023      27.053      18.306      12.466    
  8.7457      6.4137      5.1324      4.7499      5.1187      6.3373      8.7567      12.785      18.833      27.054    
  36.773      46.097      52.832      57.422      68.755      86.422      97.117      95.974      85.267      69.290    
  52.021      36.773      25.381      17.653      12.399      8.7455      6.3877      5.1186      4.6871      5.0402    
  6.3210      8.7595      12.678      18.306      25.382      33.143      41.681      52.831      63.596      82.157    
  95.972      100.97      95.978      82.170      63.609      46.101      33.147      24.277      17.653      12.465    
  8.7204      6.3370      5.0401      4.6253      5.0414      6.3434      8.7262      12.470      17.660      24.279    
  33.142      46.095      52.015      69.281      85.264      95.976      97.121      86.432      68.767      52.837    
  41.686      33.146      25.380      18.305      12.677      8.7562      6.3208      5.0414      4.6865      5.1218    
  6.3925      8.7483      12.405      17.659      25.381      36.771      39.021      53.670      69.286      82.167    
  86.431      78.549      65.769      57.430      52.836      46.099      36.771      27.051      18.833      12.784    
  8.7590      6.3431      5.1216      4.7536      5.1378      6.4155      8.7480      12.469      18.305      27.051    
  27.613      39.019      52.017      63.606      68.766      65.769      62.760      65.768      68.765      63.606    
  52.018      39.019      27.613      18.831      12.677      8.7255      6.3921      5.1376      4.7242      5.1376    
  6.3921      8.7255      12.676      18.831      18.833      27.051      36.771      46.100      52.837      57.431    
  65.769      78.548      86.430      82.167      69.286      53.670      39.021      27.051      18.304      12.469    
  8.7477      6.4153      5.1376      4.7534      5.1214      6.3428      8.7585      12.784      12.676      18.305    
  25.380      33.147      41.688      52.839      68.768      86.432      97.120      95.976      85.263      69.280    
  52.014      36.769      25.379      17.658      12.404      8.7478      6.3922      5.1215      4.6863      5.0410    
  6.3203      8.7557      8.7201      12.466      17.653      24.279      33.149      46.103      63.610      82.171    
  95.978      100.97      95.971      82.155      63.594      46.092      33.139      24.277      17.658      12.469    
  8.7258      6.3432      5.0412      4.6250      5.0397      6.3367      6.3876      8.7456      12.400      17.654    
  25.382      36.774      52.022      69.291      85.267      95.974      97.116      86.420      68.752      52.827    
  41.678      33.141      25.381      18.306      12.677      8.7594      6.3209      5.0400      4.6868      5.1183    
  5.1322      6.4137      8.7460      12.467      18.307      27.054      39.023      53.674      69.285      82.159    
  86.423      78.536      65.753      57.419      52.829      46.095      36.772      27.053      18.833      12.785    
  8.7567      6.3372      5.1185      4.7497      8.9532      9.3721      10.592      12.678      15.940      20.770    
  27.375      35.517      44.306      52.019      56.692      57.997      57.897      57.995      56.690      52.017    
  44.305      35.516      27.374      20.770      15.939      12.677      10.592      9.3720      9.3720      8.3475    
  8.1455      8.7567      10.351      13.148      17.348      23.013      29.788      36.773      43.277      49.972    
  57.996      66.201      70.821      69.284      62.206      51.947      40.960      31.229      23.735      18.305    
  14.305      11.346      10.592      8.1454      6.7701      6.3210      6.7690      8.1471      10.594      14.307    
  19.288      25.381      32.974      43.275      56.689      70.819      81.409      85.266      81.412      70.828    
  56.697      43.279      32.976      25.380      19.284      14.305      12.677      8.7566      6.3211      5.0416    
  4.6867      5.1219      6.3926      8.7483      12.405      17.659      25.380      36.771      52.015      69.281    
  85.265      95.977      97.121      86.432      68.766      52.836      41.685      33.145      25.380      18.305    
  15.939      10.351      6.7690      4.6867      3.6947      3.4955      4.0178      5.4737      8.1158      12.404    
  19.286      29.785      44.302      62.203      81.409      97.119      100.29      85.940      65.043      52.048    
  47.267      41.685      32.976      23.735      20.769      13.147      8.1468      5.1218      3.4954      2.7913    
  2.8054      3.6421      5.4735      8.7476      14.305      23.011      35.513      51.944      70.825      86.429    