cd Si                                   
   1.00000000000000     
     5.468728    0.000000    0.000000
     0.000000    5.468728    0.000000
     0.000000    0.000000    5.468728
   Si
     8
Direct
   0.375319  0.595130  0.233399
   0.097497  0.959082  0.389127
   0.224093  0.211691  0.743074
   0.027372  0.449045  0.009535
   0.815426  0.655293  0.617711
   0.448928  0.044699  0.057347
   0.683196  0.365179  0.203405
   0.328170  0.719881  0.746402
 
   24   24   24
 0.32495993027E+01 0.49830961966E+01 0.78086895167E+01 0.12227061216E+02 0.18860502187E+02
 0.28590776738E+02 0.42016617514E+02 0.57427979666E+02 0.65804691223E+02 0.55044822470E+02
 0.33931461285E+02 0.25131970468E+02 0.37275395128E+02 0.54102497455E+02 0.55045619387E+02
 0.41229028205E+02 0.26504222641E+02 0.15545926423E+02 0.87135041682E+01 0.48626713825E+01
 0.28503738703E+01 0.19604270267E+01 0.17972249885E+01 0.22293077082E+01 0.46986407570E+01
 0.67682814691E+01 0.99988559139E+01 0.14895936148E+02 0.22149836185E+02 0.32845095103E+02
 0.47741788885E+02 0.64621129118E+02 0.71004667224E+02 0.52570033997E+02 0.22344687593E+02
 0.10066899863E+02 0.26835946940E+02 0.52033671332E+02 0.58722255477E+02 0.45679546339E+02
 0.29942352955E+02 0.17956426659E+02 0.10369406886E+02 0.60425194892E+01 0.37995053378E+01
 0.28719604184E+01 0.27999469444E+01 0.34128048897E+01 0.73233699008E+01 0.98813504800E+01
 0.13477821870E+02 0.18543328111E+02 0.25764648958E+02 0.36312185881E+02 0.51108804299E+02
 0.68241335703E+02 0.76824438952E+02 0.62559512487E+02 0.36053974667E+02 0.24541124650E+02
 0.38292421943E+02 0.58439756800E+02 0.61396000735E+02 0.47526091831E+02 0.31841670387E+02
 0.19794197301E+02 0.11997140559E+02 0.74705187835E+01 0.51657762887E+01 0.43495175499E+01
 0.45435563264E+01 0.55507323742E+01 0.11797346570E+02 0.14999378298E+02 0.18842205241E+02
 0.23580346030E+02 0.29814781131E+02 0.38651040000E+02 0.51072270095E+02 0.65895960723E+02
 0.77065527030E+02 0.73929371675E+02 0.60249735176E+02 0.53005406788E+02 0.58991561308E+02
 0.66043836597E+02 0.60766824657E+02 0.46557689150E+02 0.32263190823E+02 0.21193394861E+02
 0.13806691060E+02 0.94328510786E+01 0.73017062863E+01 0.68080029992E+01 0.75273690418E+01
 0.92443407018E+01 0.19037834749E+02 0.23012676266E+02 0.26832966542E+02 0.30495314901E+02
 0.34535595632E+02 0.40024408733E+02 0.47991188245E+02 0.58017386109E+02 0.67217132655E+02
 0.71201448054E+02 0.68911715004E+02 0.66325124790E+02 0.66258156761E+02 0.63798053938E+02
 0.55224999594E+02 0.43413638202E+02 0.31850910310E+02 0.22625338662E+02 0.16217774149E+02
 0.12394015732E+02 0.10744479817E+02 0.10876572705E+02 0.12490673487E+02 0.15341109924E+02
 0.30369213455E+02 0.35280590429E+02 0.38616859944E+02 0.40050161243E+02 0.40354594774E+02
 0.41030647883E+02 0.43414942472E+02 0.47670956544E+02 0.52469867070E+02 0.56003148838E+02
 0.57553489866E+02 0.57648670668E+02 0.56558516742E+02 0.53375260800E+02 0.47453055260E+02
 0.39608163663E+02 0.31555832610E+02 0.24701383698E+02 0.19757872730E+02 0.16943755908E+02
 0.16209515035E+02 0.17425671486E+02 0.20460730230E+02 0.25023323317E+02 0.46565294594E+02
 0.52554424289E+02 0.54846448604E+02 0.52684747592E+02 0.47622126098E+02 0.42392610390E+02
 0.39078864578E+02 0.38181657081E+02 0.38969197839E+02 0.40416032641E+02 0.41833514034E+02
 0.42885936890E+02 0.43278534839E+02 0.42550233962E+02 0.40273676222E+02 0.36513608142E+02
 0.32009074550E+02 0.27831408788E+02 0.24881926262E+02 0.23674398956E+02 0.24467982487E+02
 0.27393452091E+02 0.32412033640E+02 0.39160162926E+02 0.64349527110E+02 0.70979216462E+02
 0.72544612689E+02 0.66550538128E+02 0.55625067218E+02 0.44395004941E+02 0.36053461713E+02
 0.31316420469E+02 0.29383636182E+02 0.29215215609E+02 0.30091524050E+02 0.31543861983E+02
 0.33202941077E+02 0.34618563833E+02 0.35200880318E+02 0.34631596425E+02 0.33294550998E+02
 0.32047056198E+02 0.31681295893E+02 0.32780520058E+02 0.35832402775E+02 0.41015866473E+02
 0.47951859261E+02 0.56091621807E+02 0.66000313602E+02 0.70736045846E+02 0.77154178279E+02
 0.74952565458E+02 0.61844021638E+02 0.46556010776E+02 0.34661417481E+02 0.27406915366E+02
 0.23903280636E+02 0.22829663817E+02 0.23326038988E+02 0.24948335730E+02 0.27361982751E+02
 0.30049319752E+02 0.32311718989E+02 0.33868281100E+02 0.35165513577E+02 0.36845627436E+02
 0.39365661157E+02 0.43277056153E+02 0.49186919645E+02 0.56687672372E+02 0.63583901167E+02
 0.65805652187E+02 0.35212208914E+02 0.34724384454E+02 0.53073618877E+02 0.67728258961E+02
 0.63409826278E+02 0.48286008969E+02 0.34925703062E+02 0.26287730750E+02 0.21869049041E+02
 0.20241428218E+02 0.20440590057E+02 0.22030949973E+02 0.24700498734E+02 0.27904117398E+02
 0.30952722934E+02 0.33762482727E+02 0.36914004672E+02 0.40852147651E+02 0.45817950230E+02
 0.52481815870E+02 0.61420618354E+02 0.70774355411E+02 0.71399800966E+02 0.54801746219E+02
 -.63788223329E+01 -.12170404043E+02 0.18190349315E+02 0.51742734992E+02 0.60918403122E+02
 0.49920856617E+02 0.36855584345E+02 0.27730928223E+02 0.22739416153E+02 0.20594342326E+02
 0.20353778474E+02 0.21584330800E+02 0.23971843403E+02 0.27000324727E+02 0.30083016385E+02
 0.33268150720E+02 0.37140416175E+02 0.42046905537E+02 0.48321210561E+02 0.56948284338E+02
 0.68428565910E+02 0.78740465096E+02 0.70332355469E+02 0.33267585466E+02 -.17722457058E+02
 -.24806805237E+02 0.80540686025E+01 0.46296826729E+02 0.60213315129E+02 0.52100738691E+02
 0.40127313168E+02 0.31252877244E+02 0.26026515796E+02 0.23365101106E+02 0.22449658578E+02
 0.22881514083E+02 0.24329133050E+02 0.26364516239E+02 0.28595063950E+02 0.31154876847E+02
 0.34558589039E+02 0.39149491132E+02 0.45464719430E+02 0.54729969604E+02 0.67436469042E+02
 0.78699690202E+02 0.68465358704E+02 0.26589362440E+02 0.88670177909E+01 0.43469884631E+01
 0.28338951055E+02 0.54623136125E+02 0.62058638579E+02 0.53926346274E+02 0.43620110845E+02
 0.35863290764E+02 0.30924177858E+02 0.27853834731E+02 0.26044242151E+02 0.25213466943E+02
 0.25069224975E+02 0.25353249055E+02 0.25964741618E+02 0.27136024360E+02 0.29315299272E+02
 0.32846191999E+02 0.38289076472E+02 0.46783725240E+02 0.58823851647E+02 0.70868769109E+02
 0.67982980822E+02 0.40205984234E+02 0.40450005305E+02 0.39224927359E+02 0.50729512296E+02
 0.61053235719E+02 0.60511462371E+02 0.53193912949E+02 0.45730602646E+02 0.40187861254E+02
 0.36234262603E+02 0.33002127484E+02 0.30162929443E+02 0.27696010212E+02 0.25553024995E+02
 0.23769514991E+02 0.22533836086E+02 0.22144453892E+02 0.22949986221E+02 0.25216649652E+02
 0.29337725910E+02 0.36074113415E+02 0.45817001489E+02 0.56653472415E+02 0.61819435391E+02
 0.53404157311E+02 0.48939322895E+02 0.49924891130E+02 0.53530139414E+02 0.55209971759E+02
 0.52887319769E+02 0.48873914458E+02 0.45367830660E+02 0.42884702042E+02 0.40572147524E+02
 0.37577879145E+02 0.33796856339E+02 0.29604966489E+02 0.25450463897E+02 0.21787291778E+02
 0.19006002931E+02 0.17362696565E+02 0.17033910704E+02 0.18143711107E+02 0.20869355784E+02
 0.25553873467E+02 0.32379721130E+02 0.40455468057E+02 0.47305617185E+02 0.49846634930E+02
 0.37911755172E+02 0.39809355540E+02 0.41437797569E+02 0.42276614745E+02 0.42234697260E+02
 0.42093941546E+02 0.42523994859E+02 0.43162337334E+02 0.42844126936E+02 0.40584482141E+02
 0.36293247678E+02 0.30712152989E+02 0.24902654257E+02 0.19793338923E+02 0.15925930762E+02
 0.13452338669E+02 0.12336287552E+02 0.12532842881E+02 0.14047330864E+02 0.16932632276E+02
 0.21176569084E+02 0.26384845724E+02 0.31515004558E+02 0.35410325283E+02 0.24268831364E+02
 0.26158469910E+02 0.27955452606E+02 0.29821344784E+02 0.31982711728E+02 0.34736074126E+02
 0.38043905925E+02 0.41183483245E+02 0.42829563643E+02 0.41732192998E+02 0.37590369370E+02
 0.31311587371E+02 0.24439360065E+02 0.18334647817E+02 0.13717414230E+02 0.10685986082E+02
 0.90391802988E+01 0.85701822072E+01 0.91509033550E+01 0.10679831390E+02 0.13036671759E+02
 0.16009616963E+02 0.19175724944E+02 0.22006672354E+02 0.14206731773E+02 0.15899227726E+02
 0.17895558418E+02 0.20456282784E+02 0.23833372214E+02 0.28143376116E+02 0.33136648811E+02
 0.37989316880E+02 0.41284134436E+02 0.41523312305E+02 0.38126056442E+02 0.31937311377E+02
 0.24681320175E+02 0.17985510596E+02 0.12777912472E+02 0.92416445602E+01 0.71289867211E+01
 0.61286249733E+01 0.60034153988E+01 0.65648197250E+01 0.76579055281E+01 0.91483777453E+01
 0.10857174912E+02 0.12571412512E+02 0.80075456295E+01 0.95150846407E+01 0.11530503805E+02
 0.14288422348E+02 0.18070828850E+02 0.23032994464E+02 0.28928324647E+02 0.34915787737E+02
 0.39535917504E+02 0.41157532488E+02 0.38939188557E+02 0.33458018573E+02 0.26322551027E+02
 0.19257828446E+02 0.13427154928E+02 0.92316738457E+01 0.65228621590E+01 0.49661977152E+01
 0.42496786471E+01 0.41188564554E+01 0.43995399160E+01 0.49945677264E+01 0.58240387695E+01
 0.68211699992E+01 0.45806004898E+01 0.59388833722E+01 0.78731897829E+01 0.10609539098E+02
 0.14482756434E+02 0.19728744540E+02 0.26179856354E+02 0.33082302110E+02 0.39052444173E+02
 0.42366206470E+02 0.41799662079E+02 0.37412296880E+02 0.30500427394E+02 0.22866306844E+02
 0.16032618066E+02 0.10775786473E+02 0.71494993814E+01 0.48552150493E+01 0.35318201536E+01
 0.28618095004E+01 0.26249467676E+01 0.27065567553E+01 0.30527549293E+01 0.36569289114E+01
 0.28754841273E+01 0.41446270309E+01 0.60322540020E+01 0.87883576801E+01 0.12780458888E+02
 0.18302956204E+02 0.25329867010E+02 0.33339083338E+02 0.41094316396E+02 0.46682459872E+02
 0.48290309200E+02 0.45256879777E+02 0.38434032559E+02 0.29721297310E+02 0.21174898889E+02
 0.14157780663E+02 0.90660026179E+01 0.56800946902E+01 0.35946780249E+01 0.24065190021E+01
 0.17999553512E+01 0.15846235570E+01 0.16784503906E+01 0.20860283324E+01 0.21817864744E+01
 0.34526295710E+01 0.54098626737E+01 0.83473964689E+01 0.12657853121E+02 0.18702650300E+02
 0.26659009454E+02 0.36234388908E+02 0.46147916020E+02 0.54096741088E+02 0.57807339841E+02
 0.56215702724E+02 0.49717412926E+02 0.39932578641E+02 0.29201853275E+02 0.19665316860E+02
 0.12379714913E+02 0.73988984826E+01 0.42907358237E+01 0.25033637380E+01 0.15564953763E+01
 0.11355073730E+01 0.10966591463E+01 0.14276253562E+01 0.20806738709E+01 0.34292960235E+01
 0.55801150562E+01 0.88954176459E+01 0.13810394174E+02 0.20797945726E+02 0.30226460961E+02
 0.41737680903E+02 0.53377054085E+02 0.61769070902E+02 0.64438654095E+02 0.63202052968E+02
 0.59379661252E+02 0.51243635150E+02 0.39189119624E+02 0.26939505019E+02 0.16897904148E+02
 0.98644275399E+01 0.54955226429E+01 0.30137157748E+01 0.17045882439E+01 0.11015321094E+01
 0.98193480680E+00 0.12981252162E+01 0.24432395737E+01 0.39427743308E+01 0.63898028315E+01
 0.10228623953E+02 0.15979269084E+02 0.24294688539E+02 0.35663384994E+02 0.49178840494E+02
 0.60669185812E+02 0.62273386998E+02 0.55602095006E+02 0.51690202051E+02 0.55032607724E+02
 0.57031245455E+02 0.48729656664E+02 0.34654204582E+02 0.21913970955E+02 0.12728078168E+02
 0.70374674026E+01 0.38352960128E+01 0.21552909899E+01 0.13885554262E+01 0.12240355470E+01
 0.15747816036E+01 0.39935430135E+01 0.59598404927E+01 0.89781366883E+01 0.13473118118E+02
 0.20037870318E+02 0.29621707590E+02 0.42830157005E+02 0.57421622122E+02 0.60771261326E+02
 0.39870770608E+02 0.91515615203E+01 -.78373728267E+00 0.21277073401E+02 0.52302991986E+02
 0.61704757823E+02 0.47858438773E+02 0.30775178610E+02 0.18009283180E+02 0.10054585222E+02
 0.55720126787E+01 0.32615640724E+01 0.22889789368E+01 0.21759761421E+01 0.27546545732E+01
 0.51506484596E+01 0.72631997025E+01 0.10482218177E+02 0.15267186239E+02 0.22290644560E+02
 0.32706541058E+02 0.47234713273E+02 0.62745667279E+02 0.62053513828E+02 0.30266514524E+02
 -.12228725479E+02 -.25670293300E+02 0.41054713642E+01 0.47915594249E+02 0.66330379462E+02
 0.54305154487E+02 0.35756262249E+02 0.21507672455E+02 0.12445555687E+02 0.72202310888E+01
 0.44737332891E+01 0.33135247927E+01 0.31684906591E+01 0.38016095884E+01 0.71849628629E+01
 0.94363167719E+01 0.12676193193E+02 0.17312413700E+02 0.24013887568E+02 0.34010424829E+02
 0.48192111111E+02 0.63989717175E+02 0.66413170054E+02 0.40506759497E+02 0.39878867136E+01
 -.66507281743E+01 0.20822864158E+02 0.58689942282E+02 0.71917423590E+02 0.58160676319E+02
 0.39365557522E+02 0.24691617699E+02 0.15065498971E+02 0.93278979796E+01 0.62629322422E+01
 0.49964846712E+01 0.48986359293E+01 0.56647174761E+01 0.10748752621E+02 0.13128957290E+02
 0.16169692728E+02 0.20143110575E+02 0.25633697794E+02 0.33773978194E+02 0.45533600713E+02
 0.59507191687E+02 0.67772335860E+02 0.58465958325E+02 0.40322200758E+02 0.36552840630E+02
 0.54236012010E+02 0.73943523276E+02 0.74518295414E+02 0.58955649518E+02 0.41589751604E+02
 0.27733576138E+02 0.18211926772E+02 0.12290591193E+02 0.90868395147E+01 0.78397630570E+01
 0.79181327157E+01 0.89582240591E+01 0.16802396860E+02 0.19281538158E+02 0.21801957153E+02
 0.24464825928E+02 0.27803943327E+02 0.32851149044E+02 0.40565848284E+02 0.50462229827E+02
 0.59614554538E+02 0.62983858342E+02 0.61390881792E+02 0.63650975279E+02 0.71891911487E+02
 0.76658685085E+02 0.70410284673E+02 0.57306695713E+02 0.43144935919E+02 0.31198259872E+02
 0.22432482917E+02 0.16732854373E+02 0.13642024642E+02 0.12593693691E+02 0.13049253517E+02
 0.14586945433E+02 0.26723986983E+02 0.29277558481E+02 0.30819117584E+02 0.31268708058E+02
 0.31353146401E+02 0.32336957929E+02 0.35296626883E+02 0.40305647661E+02 0.46207120362E+02
 0.51623305187E+02 0.56338249140E+02 0.61151084357E+02 0.65580867060E+02 0.66746475248E+02
 0.62862589123E+02 0.54730861582E+02 0.44852821001E+02 0.35581544524E+02 0.28286349904E+02
 0.23410692532E+02 0.20850755474E+02 0.20318891237E+02 0.21470245453E+02 0.23837263202E+02
 0.41420880486E+02 0.43925891356E+02 0.43999250986E+02 0.41286555963E+02 0.37013165370E+02
 0.33228249573E+02 0.31452990854E+02 0.32028567811E+02 0.34443989959E+02 0.38042553883E+02
 0.42428456371E+02 0.47297762130E+02 0.51958682913E+02 0.55119238980E+02 0.55379484974E+02
 0.52241230202E+02 0.46735192135E+02 0.40827214078E+02 0.36067913941E+02 0.33005892063E+02
 0.31706302386E+02 0.32230362423E+02 0.34450971253E+02 0.37823774670E+02 0.58400374270E+02
 0.60244036772E+02 0.59177111911E+02 0.53425533520E+02 0.44638545489E+02 0.36032433831E+02
 0.29970336528E+02 0.27052452269E+02 0.26796350192E+02 0.28544618070E+02 0.31834041789E+02
 0.36325874420E+02 0.41551333113E+02 0.46520608152E+02 0.49693931190E+02 0.50087025246E+02
 0.48454650572E+02 0.46627673774E+02 0.45707285511E+02 0.45668420832E+02 0.46578798407E+02
 0.48782234779E+02 0.51998751803E+02 0.55461317078E+02 0.63020570432E+02 0.62177667638E+02
 0.65176306130E+02 0.63061524206E+02 0.52705327939E+02 0.40586177910E+02 0.31096139926E+02
 0.25530699789E+02 0.23432912723E+02 0.23890015315E+02 0.26323239701E+02 0.30491494314E+02
 0.36043742432E+02 0.41916443667E+02 0.46439699710E+02 0.48860765707E+02 0.50330332616E+02
 0.52765005059E+02 0.56256666906E+02 0.59919122399E+02 0.63817016190E+02 0.68064625840E+02
 0.70919980932E+02 0.68437455635E+02 0.39866627352E+02 0.34540519108E+02 0.49062125805E+02
 0.62486515084E+02 0.59403964248E+02 0.46494134869E+02 0.34775243605E+02 0.27222278149E+02
 0.23737556190E+02 0.23244435095E+02 0.25029393348E+02 0.28847281109E+02 0.34349289620E+02
 0.40438806635E+02 0.45485416722E+02 0.49080940250E+02 0.52686905313E+02 0.58126019422E+02
 0.64857251536E+02 0.71693995425E+02 0.78799773073E+02 0.85127493592E+02 0.82872164837E+02
 0.63422980816E+02 0.49743139534E+01 -.30705894204E+01 0.24914645225E+02 0.56470759068E+02
 0.64516797868E+02 0.53511927247E+02 0.40717728118E+02 0.31814777479E+02 0.27191626764E+02
 0.25798626044E+02 0.26867604804E+02 0.30032668133E+02 0.34870223682E+02 0.40428021097E+02
 0.45342083105E+02 0.49343438395E+02 0.53753722953E+02 0.59822991424E+02 0.67285747525E+02
 0.75822679317E+02 0.85576478071E+02 0.93506628142E+02 0.83796191952E+02 0.46040438319E+02
 -.63069003654E+01 -.12385132207E+02 0.21308427143E+02 0.58675059456E+02 0.70391186933E+02
 0.60632031007E+02 0.47839801502E+02 0.38481606899E+02 0.33088081384E+02 0.30804439916E+02
 0.30961864156E+02 0.32998585308E+02 0.36288231572E+02 0.40123184097E+02 0.43670117157E+02
 0.46742451583E+02 0.50215424010E+02 0.54968285186E+02 0.61349788875E+02 0.69912750836E+02
 0.80909866571E+02 0.90230212902E+02 0.79318381644E+02 0.37579845661E+02 0.15561894595E+02
 0.14235350234E+02 0.41668162085E+02 0.68871263748E+02 0.74766891555E+02 0.65058207438E+02
 0.53838931501E+02 0.45399219373E+02 0.39934169058E+02 0.36926873040E+02 0.36012408146E+02
 0.36465421494E+02 0.37399482041E+02 0.38388173848E+02 0.39311593410E+02 0.40288445411E+02
 0.41851562943E+02 0.44622000022E+02 0.49209385590E+02 0.56511933203E+02 0.66860079327E+02
 0.77046892961E+02 0.73288135317E+02 0.45580343646E+02 0.42726264053E+02 0.45071326613E+02
 0.60345718079E+02 0.72334688353E+02 0.71511509695E+02 0.63763921883E+02 0.56074738732E+02
 0.50153773328E+02 0.45664453553E+02 0.42404528947E+02 0.40393386351E+02 0.38963477459E+02
 0.37224099972E+02 0.35112432107E+02 0.33155033705E+02 0.31823531714E+02 0.31502078538E+02
 0.32546346232E+02 0.35419553880E+02 0.40822047969E+02 0.49029187121E+02 0.58179343603E+02
 0.62253999470E+02 0.53954624709E+02 0.48630177006E+02 0.52306280551E+02 0.58549918081E+02
 0.61704994288E+02 0.59984413192E+02 0.56406386855E+02 0.53343523230E+02 0.51009864577E+02
 0.48608744746E+02 0.45906770644E+02 0.43044855611E+02 0.39701761512E+02 0.35511432766E+02
 0.30911955313E+02 0.26803113028E+02 0.23797666504E+02 0.22146652023E+02 0.21977725286E+02
 0.23482784156E+02 0.26978354744E+02 0.32582446849E+02 0.39422301996E+02 0.45317963079E+02
 0.47978965160E+02 0.36508553498E+02 0.39907077138E+02 0.42998840503E+02 0.44796586139E+02
 0.45290346138E+02 0.45638743692E+02 0.46662025457E+02 0.47901789488E+02 0.48264000063E+02
 0.46990973376E+02 0.43867018805E+02 0.38987519595E+02 0.32892331660E+02 0.26651189954E+02
 0.21325198756E+02 0.17443035615E+02 0.15074670054E+02 0.14159067556E+02 0.14674661505E+02
 0.16642237007E+02 0.20024336878E+02 0.24469908962E+02 0.29110646627E+02 0.33100795949E+02
 0.22876780144E+02 0.25412378686E+02 0.27735142370E+02 0.29830561277E+02 0.31989230272E+02
 0.34755748089E+02 0.38370685969E+02 0.42307673728E+02 0.45313161792E+02 0.45930852247E+02
 0.43297648274E+02 0.37702788857E+02 0.30472455964E+02 0.23277765394E+02 0.17330603186E+02
 0.13055939646E+02 0.10355277728E+02 0.90164623014E+01 0.88696286008E+01 0.97666523967E+01
 0.11574397682E+02 0.14132008737E+02 0.17122925186E+02 0.20119104487E+02 0.13110164650E+02
 0.14972969446E+02 0.16948596196E+02 0.19226544820E+02 0.22097323882E+02 0.25893688944E+02
 0.30765213635E+02 0.36305166343E+02 0.41210335321E+02 0.43576032191E+02 0.42020059109E+02
 0.36704834427E+02 0.29230939941E+02 0.21610717931E+02 0.15265550856E+02 0.10680329987E+02
 0.77146016255E+01 0.60638571650E+01 0.54531252268E+01 0.56341930185E+01 0.64202722728E+01
 0.77078139148E+01 0.93819324008E+01 0.11241966942E+02 0.72972196484E+01 0.87595779834E+01
 0.10519058816E+02 0.12759804116E+02 0.15774863149E+02 0.19902586644E+02 0.25318178627E+02
 0.31683771864E+02 0.37758344284E+02 0.41557077970E+02 0.41412908148E+02 0.37113414404E+02
 0.30029978360E+02 0.22234278461E+02 0.15407873833E+02 0.10286110728E+02 0.68458649278E+01
 0.47792201510E+01 0.37423978865E+01 0.34116161261E+01 0.35559587846E+01 0.40775958583E+01
 0.49290057468E+01 0.60265979062E+01 0.43011868323E+01 0.55713743324E+01 0.72166246029E+01
 0.94111561651E+01 0.12482375467E+02 0.16809445948E+02 0.22599360640E+02 0.29596706247E+02
 0.36728841255E+02 0.42085764329E+02 0.43708304396E+02 0.40771965533E+02 0.34148130632E+02
 0.25890309483E+02 0.18073366461E+02 0.11879206631E+02 0.75279990652E+01 0.47570048375E+01
 0.31783696212E+01 0.24004917234E+01 0.21290543197E+01 0.22229412658E+01 0.26337988677E+01
 0.33310456643E+01 0.30035637415E+01 0.42538081731E+01 0.59413762546E+01 0.82574824203E+01
 0.11558608615E+02 0.16257532061E+02 0.22637958290E+02 0.30617117602E+02 0.39310957968E+02
 0.46776126211E+02 0.50612705525E+02 0.49238166625E+02 0.42876566892E+02 0.33527726879E+02
 0.23839897483E+02 0.15706131100E+02 0.97571463570E+01 0.58164952348E+01 0.34411413315E+01
 0.21512595730E+01 0.15490708014E+01 0.13953112575E+01 0.15928829144E+01 0.21247190373E+01
 0.26373009562E+01 0.40076922298E+01 0.59187820753E+01 0.85928295774E+01 0.12407844960E+02
 0.17825585961E+02 0.25270726689E+02 0.34795710656E+02 0.45433590777E+02 0.54985020973E+02
 0.60839791367E+02 0.61127210390E+02 0.55448831873E+02 0.45108725311E+02 0.33024463323E+02
 0.22048535174E+02 0.13634344901E+02 0.79103634801E+01 0.43928323890E+01 0.24418517023E+01
 0.14860229852E+01 0.11405292417E+01 0.12275539379E+01 0.17195567543E+01 0.27739347252E+01
 0.43392841613E+01 0.66097282793E+01 0.98606598379E+01 0.14497938682E+02 0.21080245912E+02
 0.30152052495E+02 0.41543534637E+02 0.53424205626E+02 0.61878458497E+02 0.64789010010E+02
 0.65138148486E+02 0.63962128356E+02 0.57455665866E+02 0.44481638281E+02 0.30480514478E+02
 0.18931693494E+02 0.10874078755E+02 0.59131890079E+01 0.31591144153E+01 0.17891826983E+01
 0.12472347490E+01 0.12568243795E+01 0.17610260887E+01 0.32504695421E+01 0.50298211725E+01
 0.77030887377E+01 0.11620930009E+02 0.17266297841E+02 0.25362922218E+02 0.36493917753E+02
 0.49674240290E+02 0.59435461019E+02 0.56555985039E+02 0.45655492125E+02 0.42093672381E+02
 0.51398465658E+02 0.60612458809E+02 0.55240106155E+02 0.39596050264E+02 0.24930042874E+02
 0.14363151412E+02 0.78467803236E+01 0.42217415953E+01 0.23888138400E+01 0.16348703947E+01
 0.15794286233E+01 0.21207817291E+01 0.61430261858E+01 0.87713189838E+01 0.12356784517E+02
 0.17159822686E+02 0.23637136655E+02 0.32698117037E+02 0.45005187548E+02 0.58565278722E+02
 0.61946900476E+02 0.42718907719E+02 0.13731347962E+02 0.42301492796E+01 0.25929857315E+02
 0.56306296200E+02 0.64654157542E+02 0.49862821581E+02 0.32203280283E+02 0.19065726425E+02
 0.10862461603E+02 0.62388779439E+01 0.39139004152E+01 0.30781881566E+01 0.32596696316E+01
 0.42976083870E+01 0.69058998545E+01 0.94664600587E+01 0.13035005664E+02 0.17942322405E+02
 0.24732891136E+02 0.34486081671E+02 0.47912476414E+02 0.62181363517E+02 0.61736239017E+02
 0.32465733038E+02 -.72233111237E+01 -.19395586684E+02 0.10584206769E+02 0.54077749129E+02
 0.71400505741E+02 0.58062381061E+02 0.38542950411E+02 0.23559071425E+02 0.13946732636E+02
 0.83374055320E+01 0.53810351582E+01 0.41963741941E+01 0.41989907642E+01 0.51338185676E+01
 0.81995526997E+01 0.10527973671E+02 0.13762950435E+02 0.18231169435E+02 0.24489187732E+02
 0.33644513606E+02 0.46505553338E+02 0.60747219042E+02 0.63020268896E+02 0.39631093179E+02
 0.68755453189E+01 -.77291876278E+00 0.28483781568E+02 0.66905058219E+02 0.79329388618E+02
 0.64193298347E+02 0.44080980231E+02 0.28248877457E+02 0.17660182480E+02 0.11169909351E+02
 0.75850836409E+01 0.60289869352E+01 0.58173121442E+01 0.65945516498E+01 0.10662985881E+02
 0.12632857355E+02 0.15270495544E+02 0.18821906209E+02 0.23763701131E+02 0.31061708346E+02
 0.41551213778E+02 0.54001818760E+02 0.61662031785E+02 0.54194434471E+02 0.39990314462E+02
 0.40611909178E+02 0.61830971634E+02 0.83448892515E+02 0.84180169966E+02 0.67723049675E+02
 0.48921910458E+02 0.33482332606E+02 0.22457342459E+02 0.15259796167E+02 0.11083414743E+02
 0.91364173169E+01 0.86884414123E+01 0.92850340392E+01 0.15204513865E+02 0.16698086436E+02
 0.18455928799E+02 0.20616427611E+02 0.23587674677E+02 0.28170654454E+02 0.35146056233E+02
 0.44174832567E+02 0.52981398047E+02 0.57680135944E+02 0.59474295099E+02 0.66309718622E+02
 0.79012344803E+02 0.87060809488E+02 0.82439834709E+02 0.69298611321E+02 0.53820006756E+02
 0.39882026671E+02 0.29002867714E+02 0.21402152783E+02 0.16726397718E+02 0.14358943725E+02
 0.13645765427E+02 0.14073010740E+02 0.23095324009E+02 0.23974163081E+02 0.24476494212E+02
 0.24643604497E+02 0.24974691368E+02 0.26325247815E+02 0.29486971529E+02 0.34605308282E+02
 0.40972773001E+02 0.47792893437E+02 0.55260584470E+02 0.64016633599E+02 0.72929023641E+02
 0.78233229599E+02 0.77153416949E+02 0.69821263562E+02 0.58827219994E+02 0.47347015865E+02
 0.37605781711E+02 0.30398346015E+02 0.25593803481E+02 0.22867391150E+02 0.21896485020E+02
 0.22193383144E+02 0.35356441425E+02 0.35344279847E+02 0.34184444098E+02 0.31767392816E+02
 0.28819268664E+02 0.26595778542E+02 0.26116405164E+02 0.27720030408E+02 0.31240776552E+02
 0.36436083613E+02 0.43201952593E+02 0.51373642607E+02 0.60131850922E+02 0.67530869068E+02
 0.70945767932E+02 0.68772264519E+02 0.62083042218E+02 0.54267616885E+02 0.47745025001E+02
 0.42732818848E+02 0.38718100936E+02 0.35983334586E+02 0.34824746221E+02 0.34892599878E+02
 0.50860664898E+02 0.49406657386E+02 0.46639348675E+02 0.41801124967E+02 0.35533832348E+02
 0.29680636302E+02 0.25837179406E+02 0.24553513533E+02 0.25705621136E+02 0.29039912024E+02
 0.34430796719E+02 0.41825528777E+02 0.50770653090E+02 0.59535673630E+02 0.65106224937E+02
 0.64781322094E+02 0.60513508547E+02 0.57989063886E+02 0.58399745168E+02 0.58148151849E+02
 0.56300532130E+02 0.54170838600E+02 0.52777314531E+02 0.51845401371E+02 0.62066102137E+02
 0.58142901043E+02 0.56902567533E+02 0.52959750498E+02 0.44791024497E+02 0.35883368921E+02
 0.28989816312E+02 0.25260459319E+02 0.24592442263E+02 0.26524108079E+02 0.30877009295E+02
 0.37757282089E+02 0.46764657935E+02 0.55815795829E+02 0.61162390783E+02 0.59529160990E+02
 0.56216510286E+02 0.59515588918E+02 0.68456291805E+02 0.74860472841E+02 0.76086300394E+02
 0.75210724952E+02 0.73204785435E+02 0.68622778370E+02 0.56798495310E+02 0.50155428049E+02
 0.56566486785E+02 0.61737213553E+02 0.56037427106E+02 0.45207370229E+02 0.35735754082E+02
 0.29850502007E+02 0.27641293695E+02 0.28477851964E+02 0.32079586265E+02 0.38521930745E+02
 0.47322456265E+02 0.56241826363E+02 0.61267886523E+02 0.59217873045E+02 0.57063148281E+02
 0.63992127439E+02 0.77671677520E+02 0.88124064758E+02 0.92269294485E+02 0.93250930278E+02
 0.89389685338E+02 0.74922629530E+02 0.40545843639E+02 0.33753734690E+02 0.50971586700E+02
 0.68468122233E+02 0.68429522166E+02 0.57031342362E+02 0.45802259139E+02 0.38203282821E+02
 0.34541146236E+02 0.34274010955E+02 0.37108831763E+02 0.42824721617E+02 0.50703389073E+02
 0.58826140850E+02 0.64140238503E+02 0.64072956647E+02 0.63606102094E+02 0.70145801944E+02
 0.81967451088E+02 0.91693269970E+02 0.97723450819E+02 0.10103592510E+03 0.94476870092E+02
 0.69312418068E+02 0.33811691648E+02 0.30867342019E+02 0.54630426008E+02 0.77517394782E+02
 0.79970741556E+02 0.68975274718E+02 0.57508400486E+02 0.49106865477E+02 0.44097235352E+02
 0.42533585108E+02 0.44443780965E+02 0.48975383215E+02 0.54725490922E+02 0.60306099797E+02
 0.64083896486E+02 0.65200382543E+02 0.65513377635E+02 0.68991310047E+02 0.75483578723E+02
 0.82378316108E+02 0.89346550315E+02 0.94890164094E+02 0.89232139867E+02 0.62824889052E+02
 0.43848110582E+02 0.46187299092E+02 0.67569011184E+02 0.85334761226E+02 0.85795791498E+02
 0.76585266935E+02 0.67170421402E+02 0.59415159252E+02 0.53463195632E+02 0.50519403840E+02
 0.51380043882E+02 0.54366853311E+02 0.56976112475E+02 0.58271718206E+02 0.58300027968E+02
 0.57285319305E+02 0.56294708474E+02 0.56806273959E+02 0.59476250362E+02 0.64256073522E+02
 0.70931806762E+02 0.77736486068E+02 0.77429214530E+02 0.61642732316E+02 0.54075745248E+02
 0.59634376085E+02 0.73180407751E+02 0.82087939602E+02 0.81002284066E+02 0.75838623619E+02
 0.70582157862E+02 0.65132020920E+02 0.59228877598E+02 0.55228164022E+02 0.55230276306E+02
 0.56573690961E+02 0.55827337408E+02 0.52664841914E+02 0.48586689833E+02 0.44803237029E+02
 0.41991834034E+02 0.40726950504E+02 0.41459682423E+02 0.44505687114E+02 0.49879779268E+02
 0.56340480550E+02 0.60586549526E+02 0.58096410718E+02 0.49019017544E+02 0.54950269304E+02
 0.62108145635E+02 0.66271063402E+02 0.66954344907E+02 0.66525690693E+02 0.66026260559E+02
 0.64115878914E+02 0.59997167621E+02 0.56380668794E+02 0.55728338009E+02 0.55253209411E+02
 0.51502263572E+02 0.45086257976E+02 0.38243223974E+02 0.32628342922E+02 0.28741658956E+02
 0.26636919832E+02 0.26393605893E+02 0.28144205757E+02 0.31864692466E+02 0.36916027448E+02
 0.41806914763E+02 0.45520771705E+02 0.34300804738E+02 0.38928694469E+02 0.43421760282E+02
 0.46854217032E+02 0.49491327145E+02 0.52410847863E+02 0.55596321125E+02 0.57601429846E+02
 0.57426404730E+02 0.56227328738E+02 0.55119202068E+02 0.52143216905E+02 0.45756013320E+02
 0.37405499024E+02 0.29375550611E+02 0.23118549171E+02 0.18895575047E+02 0.16507520201E+02
 0.15789379286E+02 0.16628547387E+02 0.18892267191E+02 0.22285845626E+02 0.26211968424E+02
 0.30159374075E+02 0.21227250728E+02 0.24375671628E+02 0.27472043492E+02 0.30502852857E+02
 0.33889611836E+02 0.38200626262E+02 0.43382077448E+02 0.48582559079E+02 0.52697230298E+02
 0.54728443964E+02 0.53726894104E+02 0.48757828233E+02 0.40515272982E+02 0.31154076139E+02
 0.22849763247E+02 0.16632829686E+02 0.12496806392E+02 0.10102725543E+02 0.91515619551E+01
 0.93837590837E+01 0.10586059148E+02 0.12601318796E+02 0.15216797505E+02 0.18151271984E+02
 0.12316258686E+02 0.14435202138E+02 0.16693319531E+02 0.19274511690E+02 0.22550706867E+02
 0.26987537465E+02 0.32844910677E+02 0.39815729799E+02 0.46630903879E+02 0.51051821055E+02
 0.50932921546E+02 0.45693627890E+02 0.36914403078E+02 0.27299892765E+02 0.19027332504E+02
 0.12940023520E+02 0.89092151847E+01 0.65347000210E+01 0.54361918298E+01 0.52684474919E+01
 0.57767245986E+01 0.68452571864E+01 0.83983457528E+01 0.10281236144E+02 0.72347476548E+01
 0.87927148530E+01 0.10584164362E+02 0.12775218407E+02 0.15704355820E+02 0.19869522023E+02
 0.25722372620E+02 0.33201332605E+02 0.41078407433E+02 0.46877581518E+02 0.48079997625E+02
 0.43864451377E+02 0.35712952815E+02 0.26340487453E+02 0.18027299758E+02 0.11762749388E+02
 0.75366573221E+01 0.49792481033E+01 0.36681255930E+01 0.31936336813E+01 0.32621117592E+01
 0.37594042627E+01 0.46486914090E+01 0.58435375200E+01 0.48466438412E+01 0.62165126283E+01
 0.78508705645E+01 0.98865245965E+01 0.12657169803E+02 0.16670757169E+02 0.22411410401E+02
 0.29935535089E+02 0.38269339720E+02 0.45171732937E+02 0.48020037092E+02 0.45430364820E+02