   8   8   0   0
  0.2044415E+02  0.5468728E-09  0.5468728E-09  0.5468728E-09  0.3000000E-14
   2000.00000000000     
  CAR 
 cd Si                                   
     10.26295309     -7.61304375  301      5.19901836      1.00000000
     -7.613  0.0000E+00  0.0000E+00
     -7.553  0.0000E+00  0.0000E+00
     -7.494  0.0000E+00  0.0000E+00
     -7.434  0.0000E+00  0.0000E+00
     -7.375  0.0000E+00  0.0000E+00
     -7.315  0.0000E+00  0.0000E+00
     -7.256  0.0000E+00  0.0000E+00
     -7.196  0.1733E-14  0.1036E-15
     -7.136  0.1469E-11  0.8781E-13
     -7.077  0.5901E-09  0.3531E-10
     -7.017  0.1178E-06  0.7064E-08
     -6.958  0.1172E-04  0.7064E-06
     -6.898  0.5852E-03  0.3559E-04
     -6.838  0.1476E-01  0.9144E-03
     -6.779  0.1902E+00  0.1221E-01
     -6.719  0.1270E+01  0.8743E-01
     -6.660  0.4493E+01  0.3523E+00
     -6.600  0.8703E+01  0.8615E+00
     -6.540  0.9673E+01  0.1421E+01
     -6.481  0.6521E+01  0.1794E+01
     -6.421  0.2776E+01  0.1951E+01
     -6.362  0.7484E+00  0.1992E+01
     -6.302  0.1242E+00  0.1999E+01
     -6.243  0.1228E-01  0.2000E+01
     -6.183  0.7066E-03  0.2000E+01
     -6.123  0.2333E-04  0.2000E+01
     -6.064  0.4382E-06  0.2000E+01
     -6.004  0.4652E-08  0.2000E+01
     -5.945  0.2778E-10  0.2000E+01
     -5.885  0.9332E-13  0.2000E+01
     -5.825  0.0000E+00  0.2000E+01
     -5.766  0.0000E+00  0.2000E+01
     -5.706  0.0000E+00  0.2000E+01
     -5.647  0.0000E+00  0.2000E+01
     -5.587  0.0000E+00  0.2000E+01
     -5.528  0.0000E+00  0.2000E+01
     -5.468  0.0000E+00  0.2000E+01
     -5.408  0.0000E+00  0.2000E+01
     -5.349  0.0000E+00  0.2000E+01
     -5.289  0.0000E+00  0.2000E+01
     -5.230  0.0000E+00  0.2000E+01
     -5.170  0.0000E+00  0.2000E+01
     -5.110  0.0000E+00  0.2000E+01
     -5.051  0.0000E+00  0.2000E+01
     -4.991  0.0000E+00  0.2000E+01
     -4.932  0.0000E+00  0.2000E+01
     -4.872  0.0000E+00  0.2000E+01
     -4.812  0.0000E+00  0.2000E+01
     -4.753  0.0000E+00  0.2000E+01
     -4.693  0.0000E+00  0.2000E+01
     -4.634  0.0000E+00  0.2000E+01
     -4.574  0.0000E+00  0.2000E+01
     -4.515  0.0000E+00  0.2000E+01
     -4.455  0.0000E+00  0.2000E+01
     -4.395  0.0000E+00  0.2000E+01
     -4.336  0.0000E+00  0.2000E+01
     -4.276  0.0000E+00  0.2000E+01
     -4.217  0.0000E+00  0.2000E+01
     -4.157  0.0000E+00  0.2000E+01
     -4.097  0.0000E+00  0.2000E+01
     -4.038  0.0000E+00  0.2000E+01
     -3.978  0.0000E+00  0.2000E+01
     -3.919  0.0000E+00  0.2000E+01
     -3.859  0.0000E+00  0.2000E+01
     -3.799  0.2498E-15  0.2000E+01
     -3.740  0.2221E-12  0.2000E+01
     -3.680  0.8346E-10  0.2000E+01
     -3.621  0.1585E-07  0.2000E+01
     -3.561  0.1527E-05  0.2000E+01
     -3.502  0.7525E-04  0.2000E+01
     -3.442  0.1913E-02  0.2000E+01
     -3.382  0.2545E-01  0.2002E+01
     -3.323  0.1805E+00  0.2012E+01
     -3.263  0.7053E+00  0.2054E+01
     -3.204  0.1615E+01  0.2148E+01
     -3.144  0.2448E+01  0.2291E+01
     -3.084  0.3047E+01  0.2468E+01
     -3.025  0.3793E+01  0.2687E+01
     -2.965  0.4733E+01  0.2961E+01
     -2.906  0.5721E+01  0.3293E+01
     -2.846  0.6648E+01  0.3681E+01
     -2.787  0.7298E+01  0.4109E+01
     -2.727  0.7826E+01  0.4570E+01
     -2.667  0.7690E+01  0.5023E+01
     -2.608  0.6215E+01  0.5387E+01
     -2.548  0.4530E+01  0.5648E+01
     -2.489  0.3945E+01  0.5874E+01
     -2.429  0.4289E+01  0.6119E+01
     -2.369  0.4745E+01  0.6391E+01
     -2.310  0.5041E+01  0.6679E+01
     -2.250  0.5215E+01  0.6978E+01
     -2.191  0.5377E+01  0.7285E+01
     -2.131  0.6266E+01  0.7642E+01
     -2.071  0.8314E+01  0.8117E+01
     -2.012  0.1002E+02  0.8690E+01
     -1.952  0.9774E+01  0.9249E+01
     -1.893  0.8026E+01  0.9710E+01
     -1.833  0.5913E+01  0.1005E+02
     -1.774  0.4183E+01  0.1029E+02
     -1.714  0.3325E+01  0.1048E+02
     -1.654  0.2979E+01  0.1065E+02
     -1.595  0.2468E+01  0.1079E+02
     -1.535  0.1911E+01  0.1089E+02
     -1.476  0.1662E+01  0.1099E+02
     -1.416  0.1633E+01  0.1108E+02
     -1.356  0.1683E+01  0.1118E+02
     -1.297  0.1801E+01  0.1128E+02
     -1.237  0.2007E+01  0.1139E+02
     -1.178  0.2376E+01  0.1153E+02
     -1.118  0.2847E+01  0.1169E+02
     -1.059  0.2994E+01  0.1186E+02
     -0.999  0.2742E+01  0.1202E+02
     -0.939  0.2631E+01  0.1218E+02
     -0.880  0.2853E+01  0.1235E+02
     -0.820  0.3158E+01  0.1254E+02
     -0.761  0.3194E+01  0.1273E+02
     -0.701  0.2644E+01  0.1288E+02
     -0.641  0.1664E+01  0.1298E+02
     -0.582  0.8465E+00  0.1303E+02
     -0.522  0.3884E+00  0.1306E+02
     -0.463  0.1661E+00  0.1307E+02
     -0.403  0.1702E+00  0.1308E+02
     -0.343  0.3159E+00  0.1310E+02
     -0.284  0.3609E+00  0.1312E+02
     -0.224  0.2639E+00  0.1313E+02
     -0.165  0.3138E+00  0.1315E+02
     -0.105  0.6150E+00  0.1319E+02
     -0.046  0.8419E+00  0.1324E+02
      0.014  0.7862E+00  0.1328E+02
      0.074  0.6608E+00  0.1332E+02
      0.133  0.7012E+00  0.1337E+02
      0.193  0.8223E+00  0.1341E+02
      0.252  0.7455E+00  0.1346E+02
      0.312  0.6203E+00  0.1350E+02
      0.372  0.6648E+00  0.1354E+02
      0.431  0.7785E+00  0.1358E+02
      0.491  0.7989E+00  0.1363E+02
      0.550  0.7606E+00  0.1368E+02
      0.610  0.8921E+00  0.1373E+02
      0.670  0.1123E+01  0.1380E+02
      0.729  0.1270E+01  0.1387E+02
      0.789  0.1153E+01  0.1394E+02
      0.848  0.6798E+00  0.1398E+02
      0.908  0.2271E+00  0.1400E+02
      0.967  0.4092E-01  0.1400E+02
      1.027  0.3903E-02  0.1400E+02
      1.087  0.6030E-03  0.1400E+02
      1.146  0.6258E-02  0.1400E+02
      1.206  0.4966E-01  0.1400E+02
      1.265  0.2132E+00  0.1402E+02
      1.325  0.5270E+00  0.1405E+02
      1.385  0.8337E+00  0.1410E+02
      1.444  0.9687E+00  0.1415E+02
      1.504  0.9427E+00  0.1421E+02
      1.563  0.8498E+00  0.1426E+02
      1.623  0.7591E+00  0.1431E+02
      1.682  0.6916E+00  0.1435E+02
      1.742  0.6474E+00  0.1439E+02
      1.802  0.6385E+00  0.1442E+02
      1.861  0.7382E+00  0.1447E+02
      1.921  0.1203E+01  0.1454E+02
      1.980  0.2465E+01  0.1469E+02
      2.040  0.4470E+01  0.1496E+02
      2.100  0.6208E+01  0.1533E+02
      2.159  0.6416E+01  0.1571E+02
      2.219  0.5244E+01  0.1602E+02
      2.278  0.4040E+01  0.1626E+02
      2.338  0.3342E+01  0.1646E+02
      2.398  0.2978E+01  0.1663E+02
      2.457  0.3103E+01  0.1682E+02
      2.517  0.4153E+01  0.1706E+02
      2.576  0.5604E+01  0.1739E+02
      2.636  0.6043E+01  0.1775E+02
      2.695  0.5428E+01  0.1807E+02
      2.755  0.5065E+01  0.1836E+02
      2.815  0.5506E+01  0.1868E+02
      2.874  0.6429E+01  0.1905E+02
      2.934  0.7110E+01  0.1946E+02
      2.993  0.7033E+01  0.1986E+02
      3.053  0.6814E+01  0.2024E+02
      3.113  0.7282E+01  0.2065E+02
      3.172  0.8526E+01  0.2113E+02
      3.232  0.1062E+02  0.2173E+02
      3.291  0.1231E+02  0.2242E+02
      3.351  0.1138E+02  0.2307E+02
      3.410  0.8555E+01  0.2355E+02
      3.470  0.6216E+01  0.2391E+02
      3.530  0.4785E+01  0.2419E+02
      3.589  0.3661E+01  0.2440E+02
      3.649  0.2590E+01  0.2454E+02
      3.708  0.1739E+01  0.2464E+02
      3.768  0.1511E+01  0.2473E+02
      3.828  0.1898E+01  0.2484E+02
      3.887  0.2353E+01  0.2498E+02
      3.947  0.2673E+01  0.2513E+02
      4.006  0.2953E+01  0.2531E+02
      4.066  0.3002E+01  0.2549E+02
      4.126  0.2828E+01  0.2565E+02
      4.185  0.2883E+01  0.2583E+02
      4.245  0.3293E+01  0.2602E+02
      4.304  0.3459E+01  0.2623E+02
      4.364  0.2844E+01  0.2640E+02
      4.423  0.2027E+01  0.2652E+02
      4.483  0.1818E+01  0.2663E+02
      4.543  0.2190E+01  0.2676E+02
      4.602  0.2732E+01  0.2692E+02
      4.662  0.2892E+01  0.2710E+02
      4.721  0.2560E+01  0.2725E+02
      4.781  0.2153E+01  0.2737E+02
      4.841  0.1908E+01  0.2749E+02
      4.900  0.1877E+01  0.2760E+02
      4.960  0.2060E+01  0.2772E+02
      5.019  0.2321E+01  0.2786E+02
      5.079  0.2481E+01  0.2800E+02
      5.139  0.2552E+01  0.2815E+02
      5.198  0.2597E+01  0.2831E+02
      5.258  0.2762E+01  0.2847E+02
      5.317  0.3471E+01  0.2867E+02
      5.377  0.4634E+01  0.2895E+02
      5.436  0.5331E+01  0.2926E+02
      5.496  0.4919E+01  0.2956E+02
      5.556  0.3570E+01  0.2977E+02
      5.615  0.2118E+01  0.2989E+02
      5.675  0.1351E+01  0.2997E+02
      5.734  0.1287E+01  0.3004E+02
      5.794  0.1628E+01  0.3013E+02
      5.854  0.2158E+01  0.3026E+02
      5.913  0.2820E+01  0.3042E+02
      5.973  0.3469E+01  0.3062E+02
      6.032  0.3897E+01  0.3084E+02
      6.092  0.4202E+01  0.3109E+02
      6.151  0.4572E+01  0.3135E+02
      6.211  0.5236E+01  0.3165E+02
      6.271  0.6563E+01  0.3203E+02
      6.330  0.8365E+01  0.3251E+02
      6.390  0.9666E+01  0.3307E+02
      6.449  0.9596E+01  0.3362E+02
      6.509  0.8674E+01  0.3412E+02
      6.569  0.8424E+01  0.3461E+02
      6.628  0.9055E+01  0.3513E+02
      6.688  0.9340E+01  0.3567E+02
      6.747  0.8749E+01  0.3617E+02
      6.807  0.8004E+01  0.3663E+02
      6.867  0.7843E+01  0.3708E+02
      6.926  0.8123E+01  0.3755E+02
      6.986  0.8021E+01  0.3801E+02
      7.045  0.7416E+01  0.3842E+02
      7.105  0.7178E+01  0.3882E+02
      7.164  0.7332E+01  0.3923E+02
      7.224  0.6776E+01  0.3960E+02
      7.284  0.5090E+01  0.3989E+02
      7.343  0.3341E+01  0.4007E+02
      7.403  0.2756E+01  0.4023E+02
      7.462  0.3439E+01  0.4043E+02
      7.522  0.4703E+01  0.4070E+02
      7.582  0.5547E+01  0.4102E+02
      7.641  0.5032E+01  0.4131E+02
      7.701  0.3414E+01  0.4151E+02
      7.760  0.1945E+01  0.4162E+02
      7.820  0.1287E+01  0.4170E+02
      7.879  0.1470E+01  0.4178E+02
      7.939  0.2486E+01  0.4193E+02
      7.999  0.3894E+01  0.4216E+02
      8.058  0.4739E+01  0.4244E+02
      8.118  0.4728E+01  0.4272E+02
      8.177  0.4120E+01  0.4296E+02
      8.237  0.3015E+01  0.4314E+02
      8.297  0.2076E+01  0.4326E+02
      8.356  0.1841E+01  0.4337E+02
      8.416  0.2022E+01  0.4349E+02
      8.475  0.2324E+01  0.4363E+02
      8.535  0.2615E+01  0.4379E+02
      8.595  0.2749E+01  0.4395E+02
      8.654  0.3042E+01  0.4413E+02
      8.714  0.3359E+01  0.4433E+02
      8.773  0.3143E+01  0.4452E+02
      8.833  0.2961E+01  0.4469E+02
      8.892  0.3700E+01  0.4491E+02
      8.952  0.5090E+01  0.4520E+02
      9.012  0.5787E+01  0.4554E+02
      9.071  0.5252E+01  0.4584E+02
      9.131  0.5278E+01  0.4613E+02
      9.190  0.7491E+01  0.4656E+02
      9.250  0.9926E+01  0.4714E+02
      9.310  0.8745E+01  0.4765E+02
      9.369  0.4498E+01  0.4791E+02
      9.429  0.1270E+01  0.4799E+02
      9.488  0.1902E+00  0.4800E+02
      9.548  0.1476E-01  0.4800E+02
      9.607  0.5852E-03  0.4800E+02
      9.667  0.1172E-04  0.4800E+02
      9.727  0.1178E-06  0.4800E+02
      9.786  0.5901E-09  0.4800E+02
      9.846  0.1470E-11  0.4800E+02
      9.905  0.1353E-14  0.4800E+02
      9.965  0.0000E+00  0.4800E+02
     10.025  0.0000E+00  0.4800E+02
     10.084  0.0000E+00  0.4800E+02
     10.144  0.0000E+00  0.4800E+02
     10.203  0.0000E+00  0.4800E+02
     10.263  0.0000E+00  0.4800E+02
     10.45578818     -7.60513043  301      5.21906245      1.00000000
     -7.605  0.0000E+00  0.0000E+00
     -7.545  0.0000E+00  0.0000E+00
     -7.485  0.0000E+00  0.0000E+00
     -7.425  0.0000E+00  0.0000E+00
     -7.364  0.0000E+00  0.0000E+00
     -7.304  0.0000E+00  0.0000E+00
     -7.244  0.0000E+00  0.0000E+00
     -7.184  0.1844E-15  0.1110E-16
     -7.124  0.1264E-12  0.7620E-14
     -7.063  0.5081E-10  0.3067E-11
     -7.003  0.1004E-07  0.6072E-09
     -6.943  0.9764E-06  0.5939E-07
     -6.883  0.4697E-04  0.2887E-05
     -6.822  0.1122E-02  0.7042E-04
     -6.762  0.1336E-01  0.8749E-03
     -6.702  0.7978E-01  0.5678E-02
     -6.642  0.2397E+00  0.2011E-01
     -6.582  0.3636E+00  0.4200E-01
     -6.521  0.2787E+00  0.5877E-01
     -6.461  0.1079E+00  0.6527E-01
     -6.401  0.2104E-01  0.6654E-01
     -6.341  0.2058E-02  0.6666E-01
     -6.281  0.1005E-03  0.6667E-01
     -6.220  0.2440E-05  0.6667E-01
     -6.160  0.2932E-07  0.6667E-01
     -6.100  0.1736E-09  0.6667E-01
     -6.040  0.5053E-12  0.6667E-01
     -5.980  0.7377E-15  0.6667E-01
     -5.919  0.0000E+00  0.6667E-01
     -5.859  0.0000E+00  0.6667E-01
     -5.799  0.0000E+00  0.6667E-01
     -5.739  0.0000E+00  0.6667E-01
     -5.679  0.0000E+00  0.6667E-01
     -5.618  0.0000E+00  0.6667E-01
     -5.558  0.0000E+00  0.6667E-01
     -5.498  0.0000E+00  0.6667E-01
     -5.438  0.0000E+00  0.6667E-01
     -5.378  0.0000E+00  0.6667E-01
     -5.317  0.0000E+00  0.6667E-01
     -5.257  0.0000E+00  0.6667E-01
     -5.197  0.0000E+00  0.6667E-01
     -5.137  0.0000E+00  0.6667E-01
     -5.077  0.0000E+00  0.6667E-01
     -5.016  0.0000E+00  0.6667E-01
     -4.956  0.0000E+00  0.6667E-01
     -4.896  0.0000E+00  0.6667E-01
     -4.836  0.0000E+00  0.6667E-01
     -4.776  0.0000E+00  0.6667E-01
     -4.715  0.0000E+00  0.6667E-01
     -4.655  0.0000E+00  0.6667E-01
     -4.595  0.0000E+00  0.6667E-01
     -4.535  0.0000E+00  0.6667E-01
     -4.475  0.0000E+00  0.6667E-01
     -4.414  0.0000E+00  0.6667E-01
     -4.354  0.0000E+00  0.6667E-01
     -4.294  0.0000E+00  0.6667E-01
     -4.234  0.0000E+00  0.6667E-01
     -4.174  0.0000E+00  0.6667E-01
     -4.113  0.0000E+00  0.6667E-01
     -4.053  0.0000E+00  0.6667E-01
     -3.993  0.0000E+00  0.6667E-01
     -3.933  0.0000E+00  0.6667E-01
     -3.873  0.6147E-16  0.6667E-01
     -3.812  0.5373E-13  0.6667E-01
     -3.752  0.2377E-10  0.6667E-01
     -3.692  0.5161E-08  0.6667E-01
     -3.632  0.5518E-06  0.6667E-01
     -3.572  0.2916E-04  0.6667E-01
     -3.511  0.7644E-03  0.6671E-01
     -3.451  0.9990E-02  0.6732E-01
     -3.391  0.6539E-01  0.7125E-01
     -3.331  0.2153E+00  0.8421E-01
     -3.271  0.3577E+00  0.1058E+00
     -3.210  0.3004E+00  0.1238E+00
     -3.150  0.1274E+00  0.1315E+00
     -3.090  0.2724E-01  0.1331E+00
     -3.030  0.2923E-02  0.1333E+00
     -2.969  0.1573E-03  0.1333E+00
     -2.909  0.3720E-04  0.1333E+00
     -2.849  0.8452E-03  0.1334E+00
     -2.789  0.1079E-01  0.1340E+00
     -2.729  0.6902E-01  0.1382E+00
     -2.668  0.2237E+00  0.1517E+00
     -2.608  0.3805E+00  0.1746E+00
     -2.548  0.4024E+00  0.1988E+00
     -2.488  0.4003E+00  0.2229E+00
     -2.428  0.3892E+00  0.2463E+00
     -2.367  0.2430E+00  0.2609E+00
     -2.307  0.8034E-01  0.2658E+00
     -2.247  0.1347E-01  0.2666E+00
     -2.187  0.1133E-02  0.2667E+00
     -2.127  0.4758E-04  0.2667E+00
     -2.066  0.9917E-06  0.2667E+00
     -2.006  0.1597E-07  0.2667E+00
     -1.946  0.6053E-06  0.2667E+00
     -1.886  0.3150E-04  0.2667E+00
     -1.826  0.8136E-03  0.2667E+00
     -1.765  0.1048E-01  0.2673E+00
     -1.705  0.6757E-01  0.2714E+00
     -1.645  0.2192E+00  0.2846E+00
     -1.585  0.3590E+00  0.3062E+00
     -1.525  0.2971E+00  0.3241E+00
     -1.464  0.1242E+00  0.3316E+00
     -1.404  0.2615E-01  0.3332E+00
     -1.344  0.2765E-02  0.3333E+00
     -1.284  0.1512E-03  0.3333E+00
     -1.224  0.1899E-03  0.3333E+00
     -1.163  0.3346E-02  0.3335E+00
     -1.103  0.3007E-01  0.3354E+00
     -1.043  0.1356E+00  0.3435E+00
     -0.983  0.3084E+00  0.3621E+00
     -0.923  0.3543E+00  0.3834E+00
     -0.862  0.2056E+00  0.3958E+00
     -0.802  0.6024E-01  0.3994E+00
     -0.742  0.8873E-02  0.4000E+00
     -0.682  0.6545E-03  0.4000E+00
     -0.622  0.2406E-04  0.4000E+00
     -0.561  0.4432E-06  0.4000E+00
     -0.501  0.4956E-06  0.4000E+00
     -0.441  0.2647E-04  0.4000E+00
     -0.381  0.7071E-03  0.4000E+00
     -0.321  0.9413E-02  0.4006E+00
     -0.260  0.6276E-01  0.4044E+00
     -0.200  0.2104E+00  0.4171E+00
     -0.140  0.3561E+00  0.4385E+00
     -0.080  0.3045E+00  0.4568E+00
     -0.020  0.1315E+00  0.4647E+00
      0.041  0.2864E-01  0.4665E+00
      0.101  0.3130E-02  0.4667E+00
      0.161  0.1709E-03  0.4667E+00
      0.221  0.4642E-05  0.4667E+00
      0.281  0.6243E-07  0.4667E+00
      0.342  0.4142E-09  0.4667E+00
      0.402  0.1351E-11  0.4667E+00
      0.462  0.2213E-14  0.4667E+00
      0.522  0.0000E+00  0.4667E+00
      0.582  0.0000E+00  0.4667E+00
      0.643  0.0000E+00  0.4667E+00
      0.703  0.0000E+00  0.4667E+00
      0.763  0.1660E-14  0.4667E+00
      0.823  0.1071E-11  0.4667E+00
      0.884  0.3374E-09  0.4667E+00
      0.944  0.5224E-07  0.4667E+00
      1.004  0.3990E-05  0.4667E+00
      1.064  0.1509E-03  0.4667E+00
      1.124  0.2837E-02  0.4668E+00
      1.185  0.2665E-01  0.4685E+00
      1.245  0.1257E+00  0.4760E+00
      1.305  0.2986E+00  0.4940E+00
      1.365  0.3584E+00  0.5156E+00
      1.425  0.2174E+00  0.5287E+00
      1.486  0.6655E-01  0.5327E+00
      1.546  0.1025E-01  0.5333E+00
      1.606  0.7904E-03  0.5333E+00
      1.666  0.3049E-04  0.5333E+00
      1.726  0.7422E-05  0.5333E+00
      1.787  0.2351E-03  0.5333E+00
      1.847  0.4018E-02  0.5336E+00
      1.907  0.3433E-01  0.5357E+00
      1.967  0.1473E+00  0.5445E+00
      2.027  0.3188E+00  0.5637E+00
      2.088  0.3485E+00  0.5847E+00
      2.148  0.1925E+00  0.5963E+00
      2.208  0.5365E-01  0.5995E+00
      2.268  0.7860E-02  0.6000E+00
      2.328  0.5945E-02  0.6003E+00
      2.389  0.4257E-01  0.6029E+00
      2.449  0.1680E+00  0.6130E+00
      2.509  0.3343E+00  0.6331E+00
      2.569  0.3362E+00  0.6534E+00
      2.629  0.1715E+00  0.6637E+00
      2.690  0.5265E-01  0.6669E+00
      2.750  0.6583E-01  0.6708E+00
      2.810  0.2059E+00  0.6832E+00
      2.870  0.3542E+00  0.7046E+00
      2.930  0.3085E+00  0.7231E+00
      2.991  0.1357E+00  0.7313E+00
      3.051  0.3013E-01  0.7331E+00
      3.111  0.4247E-02  0.7334E+00
      3.171  0.1146E-01  0.7341E+00
      3.231  0.7107E-01  0.7383E+00
      3.292  0.2253E+00  0.7519E+00
      3.352  0.3606E+00  0.7736E+00
      3.412  0.2917E+00  0.7912E+00
      3.472  0.1192E+00  0.7984E+00
      3.532  0.2458E-01  0.7998E+00
      3.593  0.3622E-02  0.8001E+00
      3.653  0.1319E-01  0.8009E+00
      3.713  0.7855E-01  0.8056E+00
      3.773  0.2378E+00  0.8199E+00
      3.833  0.3646E+00  0.8418E+00
      3.894  0.2958E+00  0.8597E+00
      3.954  0.1967E+00  0.8715E+00
      4.014  0.2726E+00  0.8879E+00
      4.074  0.3669E+00  0.9100E+00
      4.134  0.2680E+00  0.9261E+00
      4.195  0.1005E+00  0.9322E+00
      4.255  0.3257E-01  0.9341E+00
      4.315  0.8415E-01  0.9392E+00
      4.375  0.2439E+00  0.9539E+00
      4.435  0.3641E+00  0.9758E+00
      4.496  0.2751E+00  0.9924E+00
      4.556  0.1097E+00  0.9990E+00
      4.616  0.5997E-01  0.1003E+01
      4.676  0.1634E+00  0.1012E+01
      4.736  0.3298E+00  0.1032E+01
      4.797  0.3403E+00  0.1053E+01
      4.857  0.1775E+00  0.1063E+01
      4.917  0.4668E-01  0.1066E+01
      4.977  0.6171E-02  0.1067E+01
      5.038  0.4081E-03  0.1067E+01
      5.098  0.1344E-04  0.1067E+01
      5.158  0.2195E-06  0.1067E+01
      5.218  0.1770E-08  0.1067E+01
      5.278  0.7024E-11  0.1067E+01
      5.339  0.7903E-12  0.1067E+01
      5.399  0.2539E-09  0.1067E+01
      5.459  0.4080E-07  0.1067E+01
      5.519  0.3234E-05  0.1067E+01
      5.579  0.1269E-03  0.1067E+01
      5.640  0.2475E-02  0.1067E+01
      5.700  0.2411E-01  0.1068E+01
      5.760  0.1179E+00  0.1075E+01
      5.820  0.2902E+00  0.1093E+01
      5.880  0.3611E+00  0.1115E+01
      5.941  0.2270E+00  0.1128E+01
      6.001  0.7235E-01  0.1133E+01
      6.061  0.1652E-01  0.1134E+01
      6.121  0.4121E-01  0.1136E+01
      6.181  0.1626E+00  0.1146E+01
      6.242  0.3313E+00  0.1166E+01
      6.302  0.3498E+00  0.1187E+01
      6.362  0.2427E+00  0.1201E+01
      6.422  0.2631E+00  0.1217E+01
      6.482  0.3643E+00  0.1239E+01
      6.543  0.2994E+00  0.1257E+01
      6.603  0.1261E+00  0.1265E+01
      6.663  0.2679E-01  0.1266E+01
      6.723  0.2857E-02  0.1267E+01
      6.783  0.1522E-03  0.1267E+01
      6.844  0.4034E-05  0.1267E+01
      6.904  0.5291E-07  0.1267E+01
      6.964  0.3424E-09  0.1267E+01
      7.024  0.1807E-11  0.1267E+01
      7.084  0.2369E-09  0.1267E+01
      7.145  0.3842E-07  0.1267E+01
      7.205  0.3073E-05  0.1267E+01
      7.265  0.1216E-03  0.1267E+01
      7.325  0.2393E-02  0.1267E+01
      7.385  0.2352E-01  0.1268E+01
      7.446  0.1160E+00  0.1275E+01
      7.506  0.2882E+00  0.1293E+01
      7.566  0.3616E+00  0.1314E+01
      7.626  0.2293E+00  0.1328E+01
      7.686  0.7341E-01  0.1333E+01
      7.747  0.1183E-01  0.1333E+01
      7.807  0.1109E-02  0.1333E+01
      7.867  0.2937E-02  0.1334E+01
      7.927  0.2707E-01  0.1335E+01
      7.987  0.1269E+00  0.1343E+01
      8.048  0.3000E+00  0.1361E+01
      8.108  0.3595E+00  0.1382E+01
      8.168  0.2333E+00  0.1397E+01
      8.228  0.1610E+00  0.1406E+01
      8.288  0.2726E+00  0.1423E+01
      8.349  0.3658E+00  0.1445E+01
      8.409  0.2566E+00  0.1460E+01
      8.469  0.9105E-01  0.1466E+01
      8.529  0.1627E-01  0.1467E+01
      8.589  0.1457E-02  0.1467E+01
      8.650  0.6513E-04  0.1467E+01
      8.710  0.1446E-05  0.1467E+01
      8.770  0.1682E-07  0.1467E+01
      8.830  0.1272E-06  0.1467E+01
      8.891  0.8478E-05  0.1467E+01
      8.951  0.2801E-03  0.1467E+01
      9.011  0.4608E-02  0.1467E+01
      9.071  0.3790E-01  0.1469E+01
      9.131  0.1566E+00  0.1479E+01
      9.192  0.3262E+00  0.1498E+01
      9.252  0.3453E+00  0.1519E+01
      9.312  0.2036E+00  0.1531E+01
      9.372  0.1569E+00  0.1541E+01
      9.432  0.2853E+00  0.1558E+01
      9.493  0.3640E+00  0.1580E+01
      9.553  0.2397E+00  0.1594E+01
      9.613  0.7978E-01  0.1599E+01
      9.673  0.1336E-01  0.1600E+01
      9.733  0.1122E-02  0.1600E+01
      9.794  0.4697E-04  0.1600E+01
      9.854  0.9764E-06  0.1600E+01
      9.914  0.1004E-07  0.1600E+01
      9.974  0.5081E-10  0.1600E+01
     10.034  0.1264E-12  0.1600E+01
     10.095  0.2459E-15  0.1600E+01
     10.155  0.0000E+00  0.1600E+01
     10.215  0.0000E+00  0.1600E+01
     10.275  0.0000E+00  0.1600E+01
     10.335  0.0000E+00  0.1600E+01
     10.396  0.0000E+00  0.1600E+01
     10.456  0.0000E+00  0.1600E+01
