    8    8   30    1
  0.2044415E+02  0.5468728E-09  0.5468728E-09  0.5468728E-09  0.3000000E-14
   2000.00000000000     
  CAR 
 cd Si                                   
     32      1     24
 
  0.1276756E-14  0.1276756E-14  0.1276756E-14  0.1000000E+01
      1         -6.605130   1.000000
      2         -3.285920   1.000000
      3         -2.625767   1.000000
      4         -2.464197   1.000000
      5         -1.601526   1.000000
      6         -0.970567   1.000000
      7         -0.153757   1.000000
      8          1.321024   1.000000
      9          2.035211   1.000000
     10          2.509485   1.000000
     11          2.858005   1.000000
     12          3.333110   1.000000
     13          3.810645   1.000000
     14          4.047009   1.000000
     15          4.410665   1.000000
     16          4.739276   1.000000
     17          5.839414   0.000000
     18          6.243980   0.000000
     19          6.466449   0.000000
     20          7.525865   0.000000
     21          8.063270   0.000000
     22          8.317569   0.000000
     23          9.196039   0.000000
     24          9.455788   0.000000
