       N       E                     dE             d eps       ncg     rms          rms(c)
RMM:   1     0.754974959484E+02    0.75497E+02   -0.46818E+03    24   0.397E+02
RMM:   2    -0.875518671481E+01   -0.84253E+02   -0.83685E+02    24   0.966E+01
RMM:   3    -0.226510848248E+02   -0.13896E+02   -0.13463E+02    24   0.403E+01
RMM:   4    -0.295303566065E+02   -0.68793E+01   -0.43614E+01    24   0.243E+01
RMM:   5    -0.315667911365E+02   -0.20364E+01   -0.14159E+01    24   0.120E+01
RMM:   6    -0.327170014501E+02   -0.11502E+01   -0.77364E+00    24   0.846E+00
RMM:   7    -0.333897802066E+02   -0.67278E+00   -0.50488E+00    24   0.495E+00
RMM:   8    -0.337908517247E+02   -0.40107E+00   -0.32940E+00    24   0.376E+00
RMM:   9    -0.344686794878E+02   -0.67783E+00   -0.65880E+00    53   0.231E+00
RMM:  10    -0.345244538218E+02   -0.55774E-01   -0.18755E-01    48   0.602E-01
RMM:  11    -0.345280566320E+02   -0.36028E-02   -0.28151E-02    45   0.252E-01
RMM:  12    -0.345287707891E+02   -0.71416E-03   -0.69417E-03    39   0.122E-01    0.141E+01
RMM:  13    -0.335052008526E+02    0.10236E+01   -0.51547E-01    70   0.271E+00    0.887E+00
RMM:  14    -0.331039973164E+02    0.40120E+00   -0.11685E+00    80   0.440E+00    0.565E-01
RMM:  15    -0.331222548330E+02   -0.18258E-01   -0.14524E-02    49   0.562E-01    0.217E-01
RMM:  16    -0.331286044217E+02   -0.63496E-02   -0.46298E-03    49   0.404E-01    0.157E-01
RMM:  17    -0.331287350625E+02   -0.13064E-03   -0.35963E-04    40   0.105E-01    0.216E-02
RMM:  18    -0.331287376835E+02   -0.26209E-05   -0.50199E-05    32   0.346E-02
      1 T=  2000. E= -.31319087E+02 F= -.33128738E+02 E0= -.33128735E+02  EK= 0.18097E+01 SP= 0.00E+00 SK= 0.00E+00
       N       E                     dE             d eps       ncg     rms          rms(c)
RMM:   1    -0.330393856559E+02    0.89349E-01   -0.29792E+00    48   0.644E+00    0.823E-01
RMM:   2    -0.330445652089E+02   -0.51796E-02   -0.20923E-01    48   0.246E+00    0.432E-01
RMM:   3    -0.330450147358E+02   -0.44953E-03   -0.27420E-02    48   0.921E-01    0.346E-01
RMM:   4    -0.330452255819E+02   -0.21085E-03   -0.30693E-03    48   0.307E-01    0.119E-01
RMM:   5    -0.330453361431E+02   -0.11056E-03   -0.85128E-04    48   0.142E-01    0.519E-02
RMM:   6    -0.330453606685E+02   -0.24525E-04   -0.15987E-04    33   0.591E-02
      2 T=  1910. E= -.31317433E+02 F= -.33045361E+02 E0= -.33044971E+02  EK= 0.17279E+01 SP= -.73E-08 SK= 0.28E-14
       N       E                     dE             d eps       ncg     rms          rms(c)
RMM:   1    -0.328371170392E+02    0.20822E+00   -0.41932E-02    48   0.943E-01    0.415E-01
RMM:   2    -0.328346910366E+02    0.24260E-02   -0.67004E-03    50   0.358E-01    0.132E-01
RMM:   3    -0.328347275817E+02   -0.36545E-04   -0.14391E-03    49   0.171E-01    0.771E-02
RMM:   4    -0.328348135637E+02   -0.85982E-04   -0.43765E-04    38   0.848E-02
      3 T=  1688. E= -.31309093E+02 F= -.32834814E+02 E0= -.32823014E+02  EK= 0.15273E+01 SP= -.17E-02 SK= 0.15E-03
       N       E                     dE             d eps       ncg     rms          rms(c)
RMM:   1    -0.326024433675E+02    0.23228E+00   -0.31235E-02    48   0.847E-01    0.409E-01
RMM:   2    -0.326007985150E+02    0.16449E-02   -0.83972E-03    51   0.348E-01    0.156E-01
RMM:   3    -0.326009189611E+02   -0.12045E-03   -0.15172E-03    50   0.159E-01    0.847E-02
RMM:   4    -0.326010078940E+02   -0.88933E-04   -0.47003E-04    45   0.881E-02
      4 T=  1441. E= -.31304843E+02 F= -.32601008E+02 E0= -.32566304E+02  EK= 0.13036E+01 SP= -.92E-02 SK= 0.18E-02
       N       E                     dE             d eps       ncg     rms          rms(c)
RMM:   1    -0.324393737818E+02    0.16155E+00   -0.26044E-02    49   0.721E-01    0.103E+00
RMM:   2    -0.324193517366E+02    0.20022E-01   -0.49283E-02    48   0.787E-01    0.404E-01
RMM:   3    -0.324159471999E+02    0.34045E-02   -0.93225E-03    50   0.372E-01    0.164E-01
RMM:   4    -0.324160905871E+02   -0.14339E-03   -0.18648E-03    50   0.167E-01    0.883E-02
RMM:   5    -0.324162150900E+02   -0.12450E-03   -0.50382E-04    40   0.885E-02    0.363E-02
RMM:   6    -0.324162435900E+02   -0.28500E-04   -0.11001E-04    32   0.398E-02
      5 T=  1253. E= -.31301878E+02 F= -.32416244E+02 E0= -.32367319E+02  EK= 0.11338E+01 SP= -.27E-01 SK= 0.79E-02
       N       E                     dE             d eps       ncg     rms          rms(c)
RMM:   1    -0.323336235990E+02    0.82591E-01   -0.22990E-02    51   0.522E-01    0.457E-01
RMM:   2    -0.323314757632E+02    0.21478E-02   -0.13900E-02    51   0.381E-01    0.225E-01
RMM:   3    -0.323308172417E+02    0.65852E-03   -0.33707E-03    51   0.199E-01    0.113E-01
RMM:   4    -0.323309409998E+02   -0.12376E-03   -0.10633E-03    52   0.110E-01    0.520E-02
RMM:   5    -0.323310083601E+02   -0.67360E-04   -0.19986E-04    34   0.638E-02
      6 T=  1184. E= -.31298618E+02 F= -.32331008E+02 E0= -.32274961E+02  EK= 0.10710E+01 SP= -.59E-01 SK= 0.21E-01
       N       E                     dE             d eps       ncg     rms          rms(c)
RMM:   1    -0.323892509333E+02   -0.58310E-01   -0.14868E-02    49   0.460E-01    0.430E-01
RMM:   2    -0.323865299454E+02    0.27210E-02   -0.12090E-02    51   0.299E-01    0.218E-01
RMM:   3    -0.323864834140E+02    0.46531E-04   -0.28303E-03    51   0.184E-01    0.136E-01
RMM:   4    -0.323863995140E+02    0.83900E-04   -0.93696E-04    50   0.116E-01
      7 T=  1274. E= -.31300747E+02 F= -.32386400E+02 E0= -.32335894E+02  EK= 0.11527E+01 SP= -.11E+00 SK= 0.40E-01
       N       E                     dE             d eps       ncg     rms          rms(c)
RMM:   1    -0.325727057077E+02   -0.18622E+00   -0.12692E-02    49   0.427E-01    0.465E-01
RMM:   2    -0.325693400683E+02    0.33656E-02   -0.84425E-03    50   0.310E-01    0.253E-01
RMM:   3    -0.325694003551E+02   -0.60287E-04   -0.40170E-03    52   0.223E-01    0.116E-01
RMM:   4    -0.325696121163E+02   -0.21176E-03   -0.93995E-04    51   0.117E-01    0.647E-02
RMM:   5    -0.325696690287E+02   -0.56912E-04   -0.24960E-04    35   0.656E-02
      8 T=  1520. E= -.31303112E+02 F= -.32569669E+02 E0= -.32522171E+02  EK= 0.13756E+01 SP= -.17E+00 SK= 0.59E-01
       N       E                     dE             d eps       ncg     rms          rms(c)
RMM:   1    -0.328543617630E+02   -0.28475E+00   -0.19240E-02    50   0.512E-01    0.413E-01
RMM:   2    -0.328515267062E+02    0.28351E-02   -0.10428E-02    49   0.324E-01    0.251E-01
RMM:   3    -0.328512439537E+02    0.28275E-03   -0.36615E-03    51   0.211E-01    0.164E-01
RMM:   4    -0.328511591004E+02    0.84853E-04   -0.13932E-03    49   0.144E-01    0.760E-02
RMM:   5    -0.328512383430E+02   -0.79243E-04   -0.44175E-04    37   0.823E-02
      9 T=  1896. E= -.31303396E+02 F= -.32851238E+02 E0= -.32807120E+02  EK= 0.17160E+01 SP= -.24E+00 SK= 0.70E-01
       N       E                     dE             d eps       ncg     rms          rms(c)
RMM:   1    -0.332184757194E+02   -0.36732E+00   -0.23760E-02    48   0.587E-01    0.153E-01
RMM:   2    -0.332191457381E+02   -0.67002E-03   -0.77026E-03    51   0.254E-01    0.824E-02
RMM:   3    -0.332192786052E+02   -0.13287E-03   -0.11941E-03    50   0.124E-01    0.615E-02
RMM:   4    -0.332193377971E+02   -0.59192E-04   -0.31418E-04    38   0.652E-02
     10 T=  2387. E= -.31303848E+02 F= -.33219338E+02 E0= -.33182534E+02  EK= 0.21598E+01 SP= -.31E+00 SK= 0.65E-01
       N       E                     dE             d eps       ncg     rms          rms(c)
RMM:   1    -0.336681212624E+02   -0.44884E+00   -0.45394E-02    48   0.785E-01    0.162E-01
RMM:   2    -0.336688560291E+02   -0.73477E-03   -0.12339E-02    53   0.343E-01    0.698E-02
RMM:   3    -0.336689996354E+02   -0.14361E-03   -0.18167E-03    52   0.147E-01    0.595E-02
RMM:   4    -0.336690228479E+02   -0.23212E-04   -0.26442E-04    37   0.648E-02
     11 T=  2978. E= -.31304658E+02 F= -.33669023E+02 E0= -.33646896E+02  EK= 0.26942E+01 SP= -.37E+00 SK= 0.43E-01
       N       E                     dE             d eps       ncg     rms          rms(c)
RMM:   1    -0.342015584246E+02   -0.53256E+00   -0.49193E-02    48   0.907E-01    0.282E-01
RMM:   2    -0.341989966297E+02    0.25618E-02   -0.11661E-02    49   0.399E-01    0.113E-01
RMM:   3    -0.341991484887E+02   -0.15186E-03   -0.50083E-03    51   0.208E-01    0.756E-02
RMM:   4    -0.341991997628E+02   -0.51274E-04   -0.70486E-04    43   0.931E-02
     12 T=  3639. E= -.31310667E+02 F= -.34199200E+02 E0= -.34195139E+02  EK= 0.32929E+01 SP= -.42E+00 SK= 0.14E-01
       N       E                     dE             d eps       ncg     rms          rms(c)
RMM:   1    -0.347710461305E+02   -0.57190E+00   -0.98115E-02    48   0.123E+00    0.267E-01
RMM:   2    -0.347717973509E+02   -0.75122E-03   -0.23397E-02    50   0.499E-01    0.131E-01
RMM:   3    -0.347720475788E+02   -0.25023E-03   -0.46398E-03    52   0.233E-01    0.812E-02
RMM:   4    -0.347721571528E+02   -0.10957E-03   -0.98602E-04    46   0.109E-01    0.382E-02
RMM:   5    -0.347721853978E+02   -0.28245E-04   -0.15780E-04    34   0.510E-02
     13 T=  4295. E= -.31317867E+02 F= -.34772185E+02 E0= -.34772100E+02  EK= 0.38858E+01 SP= -.43E+00 SK= 0.39E-03
       N       E                     dE             d eps       ncg     rms          rms(c)
RMM:   1    -0.353436849751E+02   -0.57153E+00   -0.21257E-01    48   0.169E+00    0.360E-01
RMM:   2    -0.353438032202E+02   -0.11825E-03   -0.60271E-02    51   0.768E-01    0.169E-01
RMM:   3    -0.353438415793E+02   -0.38359E-04   -0.10984E-02    48   0.363E-01    0.902E-02
RMM:   4    -0.353440526566E+02   -0.21108E-03   -0.26245E-03    50   0.186E-01    0.462E-02
RMM:   5    -0.353441027018E+02   -0.50045E-04   -0.43739E-04    40   0.788E-02
     14 T=  4844. E= -.31322163E+02 F= -.35344103E+02 E0= -.35344093E+02  EK= 0.43832E+01 SP= -.40E+00 SK= 0.40E-01
       N       E                     dE             d eps       ncg     rms          rms(c)
RMM:   1    -0.358872166849E+02   -0.54316E+00   -0.16463E-01    48   0.188E+00    0.261E-01
RMM:   2    -0.358897457899E+02   -0.25291E-02   -0.26857E-02    50   0.604E-01    0.907E-02
RMM:   3    -0.358902466937E+02   -0.50090E-03   -0.39554E-03    51   0.248E-01    0.836E-02
RMM:   4    -0.358903863859E+02   -0.13969E-03   -0.82665E-04    45   0.112E-01    0.540E-02
RMM:   5    -0.358904409636E+02   -0.54578E-04   -0.23016E-04    34   0.571E-02
     15 T=  5206. E= -.31325409E+02 F= -.35890441E+02 E0= -.35890435E+02  EK= 0.47103E+01 SP= -.32E+00 SK= 0.17E+00
       N       E                     dE             d eps       ncg     rms          rms(c)
RMM:   1    -0.363708547200E+02   -0.48047E+00   -0.22206E-01    48   0.218E+00    0.293E-01
RMM:   2    -0.363749189384E+02   -0.40642E-02   -0.39608E-02    50   0.722E-01    0.863E-02
RMM:   3    -0.363756196851E+02   -0.70075E-03   -0.52122E-03    50   0.295E-01    0.847E-02
RMM:   4    -0.363758288859E+02   -0.20920E-03   -0.14026E-03    47   0.136E-01    0.653E-02
RMM:   5    -0.363758996420E+02   -0.70756E-04   -0.23313E-04    37   0.648E-02
     16 T=  5314. E= -.31323142E+02 F= -.36375900E+02 E0= -.36375895E+02  EK= 0.48079E+01 SP= -.17E+00 SK= 0.42E+00
       N       E                     dE             d eps       ncg     rms          rms(c)
RMM:   1    -0.367787383372E+02   -0.40291E+00   -0.19073E-01    48   0.225E+00    0.305E-01
RMM:   2    -0.367809932835E+02   -0.22549E-02   -0.19534E-02    49   0.656E-01    0.946E-02
RMM:   3    -0.367816998822E+02   -0.70660E-03   -0.46434E-03    52   0.274E-01    0.764E-02
RMM:   4    -0.367818300742E+02   -0.13019E-03   -0.52141E-04    39   0.113E-01    0.435E-02
RMM:   5    -0.367818757418E+02   -0.45668E-04   -0.14542E-04    34   0.565E-02
     17 T=  5153. E= -.31318476E+02 F= -.36781876E+02 E0= -.36781873E+02  EK= 0.46623E+01 SP= 0.39E-01 SK= 0.76E+00
       N       E                     dE             d eps       ncg     rms          rms(c)
RMM:   1    -0.370954271756E+02   -0.31360E+00   -0.20790E-01    48   0.236E+00    0.255E-01
RMM:   2    -0.370983039126E+02   -0.28767E-02   -0.26136E-02    51   0.691E-01    0.987E-02
RMM:   3    -0.370988046811E+02   -0.50077E-03   -0.33932E-03    50   0.266E-01    0.803E-02
RMM:   4    -0.370989442090E+02   -0.13953E-03   -0.62527E-04    44   0.118E-01    0.534E-02
RMM:   5    -0.370990041418E+02   -0.59933E-04   -0.17475E-04    33   0.618E-02
     18 T=  4764. E= -.31309740E+02 F= -.37099004E+02 E0= -.37099004E+02  EK= 0.43103E+01 SP= 0.31E+00 SK= 0.12E+01
       N       E                     dE             d eps       ncg     rms          rms(c)
RMM:   1    -0.373433351131E+02   -0.24439E+00   -0.19061E-01    48   0.227E+00    0.295E-01
RMM:   2    -0.373456884662E+02   -0.23534E-02   -0.21870E-02    50   0.714E-01    0.912E-02
RMM:   3    -0.373461706610E+02   -0.48219E-03   -0.37078E-03    50   0.285E-01    0.806E-02
RMM:   4    -0.373462878100E+02   -0.11715E-03   -0.71388E-04    44   0.131E-01    0.427E-02
RMM:   5    -0.373463236680E+02   -0.35858E-04   -0.19379E-04    34   0.653E-02
     19 T=  4237. E= -.31300013E+02 F= -.37346324E+02 E0= -.37346324E+02  EK= 0.38342E+01 SP= 0.63E+00 SK= 0.16E+01
       N       E                     dE             d eps       ncg     rms          rms(c)
RMM:   1    -0.375742787494E+02   -0.22799E+00   -0.16803E-01    48   0.202E+00    0.213E-01
RMM:   2    -0.375765934297E+02   -0.23147E-02   -0.21966E-02    50   0.680E-01    0.910E-02
RMM:   3    -0.375769751592E+02   -0.38173E-03   -0.34310E-03    52   0.275E-01    0.109E-01
RMM:   4    -0.375770383300E+02   -0.63171E-04   -0.55584E-04    42   0.116E-01
     20 T=  3697. E= -.31291614E+02 F= -.37577038E+02 E0= -.37577038E+02  EK= 0.33448E+01 SP= 0.10E+01 SK= 0.19E+01
       N       E                     dE             d eps       ncg     rms          rms(c)
RMM:   1    -0.378479414597E+02   -0.27097E+00   -0.11476E-01    49   0.165E+00    0.183E-01
RMM:   2    -0.378496359365E+02   -0.16945E-02   -0.16919E-02    52   0.548E-01    0.737E-02
RMM:   3    -0.378498783840E+02   -0.24245E-03   -0.23885E-03    48   0.221E-01    0.589E-02
RMM:   4    -0.378499355273E+02   -0.57143E-04   -0.47555E-04    41   0.102E-01
     21 T=  3238. E= -.31288863E+02 F= -.37849936E+02 E0= -.37849936E+02  EK= 0.29296E+01 SP= 0.14E+01 SK= 0.22E+01
       N       E                     dE             d eps       ncg     rms          rms(c)
RMM:   1    -0.381830761745E+02   -0.33320E+00   -0.63056E-02    49   0.124E+00    0.124E-01
RMM:   2    -0.381838398001E+02   -0.76363E-03   -0.93469E-03    50   0.406E-01    0.749E-02
RMM:   3    -0.381839833668E+02   -0.14357E-03   -0.14936E-03    48   0.171E-01    0.623E-02
RMM:   4    -0.381840149788E+02   -0.31612E-04   -0.27626E-04    39   0.776E-02
     22 T=  2890. E= -.31291016E+02 F= -.38184015E+02 E0= -.38184015E+02  EK= 0.26146E+01 SP= 0.18E+01 SK= 0.25E+01
       N       E                     dE             d eps       ncg     rms          rms(c)
RMM:   1    -0.385480247390E+02   -0.36404E+00   -0.39596E-02    48   0.900E-01    0.900E-02
RMM:   2    -0.385486230215E+02   -0.59828E-03   -0.66255E-03    50   0.328E-01    0.341E-02
RMM:   3    -0.385487343826E+02   -0.11136E-03   -0.11395E-03    50   0.136E-01    0.331E-02
RMM:   4    -0.385487525011E+02   -0.18118E-04   -0.19187E-04    35   0.621E-02
     23 T=  2619. E= -.31293314E+02 F= -.38548753E+02 E0= -.38548753E+02  EK= 0.23698E+01 SP= 0.23E+01 SK= 0.26E+01
       N       E                     dE             d eps       ncg     rms          rms(c)
RMM:   1    -0.388969475477E+02   -0.34821E+00   -0.26431E-02    48   0.699E-01    0.863E-02
RMM:   2    -0.388973969498E+02   -0.44940E-03   -0.47806E-03    50   0.273E-01    0.382E-02
RMM:   3    -0.388974664861E+02   -0.69536E-04   -0.73463E-04    46   0.116E-01
     24 T=  2377. E= -.31293649E+02 F= -.38897466E+02 E0= -.38897466E+02  EK= 0.21509E+01 SP= 0.27E+01 SK= 0.27E+01
       N       E                     dE             d eps       ncg     rms          rms(c)
RMM:   1    -0.392005260828E+02   -0.30313E+00   -0.20009E-02    48   0.624E-01    0.743E-02
RMM:   2    -0.392008595938E+02   -0.33351E-03   -0.36454E-03    51   0.241E-01    0.514E-02
RMM:   3    -0.392009010461E+02   -0.41452E-04   -0.52767E-04    43   0.106E-01
     25 T=  2138. E= -.31291824E+02 F= -.39200901E+02 E0= -.39200901E+02  EK= 0.19348E+01 SP= 0.32E+01 SK= 0.28E+01
       N       E                     dE             d eps       ncg     rms          rms(c)
RMM:   1    -0.394561860899E+02   -0.25533E+00   -0.21171E-02    48   0.542E-01    0.796E-02
RMM:   2    -0.394566038506E+02   -0.41776E-03   -0.44675E-03    52   0.237E-01    0.452E-02
RMM:   3    -0.394566536831E+02   -0.49833E-04   -0.58640E-04    41   0.980E-02
     26 T=  1904. E= -.31290508E+02 F= -.39456654E+02 E0= -.39456654E+02  EK= 0.17229E+01 SP= 0.36E+01 SK= 0.28E+01
       N       E                     dE             d eps       ncg     rms          rms(c)
RMM:   1    -0.396711042016E+02   -0.21450E+00   -0.34431E-02    49   0.535E-01    0.711E-02
RMM:   2    -0.396718061418E+02   -0.70194E-03   -0.72319E-03    50   0.268E-01    0.411E-02
RMM:   3    -0.396719045991E+02   -0.98457E-04   -0.10442E-03    42   0.112E-01    0.315E-02
RMM:   4    -0.396719237614E+02   -0.19162E-04   -0.21889E-04    34   0.519E-02
     27 T=  1684. E= -.31290181E+02 F= -.39671924E+02 E0= -.39671924E+02  EK= 0.15239E+01 SP= 0.41E+01 SK= 0.28E+01
       N       E                     dE             d eps       ncg     rms          rms(c)
RMM:   1    -0.398469772098E+02   -0.17507E+00   -0.30456E-02    48   0.462E-01    0.671E-02
RMM:   2    -0.398475975696E+02   -0.62036E-03   -0.64616E-03    50   0.258E-01    0.211E-02
RMM:   3    -0.398477395294E+02   -0.14196E-03   -0.14499E-03    43   0.112E-01    0.188E-02
RMM:   4    -0.398477488413E+02   -0.93120E-05   -0.14202E-04    33   0.462E-02
     28 T=  1479. E= -.31290598E+02 F= -.39847749E+02 E0= -.39847749E+02  EK= 0.13380E+01 SP= 0.45E+01 SK= 0.27E+01
       N       E                     dE             d eps       ncg     rms          rms(c)
RMM:   1    -0.399742113680E+02   -0.12647E+00   -0.19202E-02    49   0.429E-01    0.434E-02
RMM:   2    -0.399746279978E+02   -0.41663E-03   -0.42116E-03    50   0.218E-01    0.260E-02
RMM:   3    -0.399746743217E+02   -0.46324E-04   -0.50562E-04    40   0.921E-02
     29 T=  1278. E= -.31290477E+02 F= -.39974674E+02 E0= -.39974674E+02  EK= 0.11561E+01 SP= 0.50E+01 SK= 0.25E+01
       N       E                     dE             d eps       ncg     rms          rms(c)
RMM:   1    -0.400458811280E+02   -0.71253E-01   -0.24024E-02    49   0.477E-01    0.431E-02
RMM:   2    -0.400463308389E+02   -0.44971E-03   -0.45017E-03    50   0.237E-01    0.331E-02
RMM:   3    -0.400464119624E+02   -0.81124E-04   -0.83208E-04    42   0.107E-01
     30 T=  1076. E= -.31289043E+02 F= -.40046412E+02 E0= -.40046412E+02  EK= 0.97316E+00 SP= 0.54E+01 SK= 0.24E+01
