 vasp.6.5.0 16Dec24 (build Mar 16 2025 21:55:21) complex                        
  
 executed on             LinuxIFC date 2025.11.04  09:58:36
 running    4 mpi-ranks, with   40 threads/rank, on    1 nodes
 distrk:  each k-point on    4 cores,    1 groups
 distr:  one band on NCORE=   1 cores,    4 groups


--------------------------------------------------------------------------------------------------------


 INCAR:
   SYSTEM = cd Si
   ISMEAR = 0
   SIGMA = 0.1
   LREAL = Auto
   ALGO = VeryFast
   PREC = Low
   ISYM = 0
   IBRION = 0
   NSW = 30
   POTIM = 3.0
   MDALGO = 2
   SMASS = 1.0
   TEBEG = 2000
   TEEND = 2000
   ISIF = 2

 POTCAR:    PAW_PBE Si 05Jan2001                  
 POTCAR:    PAW_PBE Si 05Jan2001                  
   VRHFIN =Si: s2p2                                                                                 
   LEXCH  = PE                                                                                      
   EATOM  =   103.0669 eV,    7.5752 Ry                                                             
                                                                                                    
   TITEL  = PAW_PBE Si 05Jan2001                                                                    
   LULTRA =        F    use ultrasoft PP ?                                                          
   IUNSCR =        1    unscreen: 0-lin 1-nonlin 2-no                                               
   RPACOR =    1.500    partial core radius                                                         
   POMASS =   28.085; ZVAL   =    4.000    mass and valenz                                          
   RCORE  =    1.900    outmost cutoff radius                                                       
   RWIGS  =    2.480; RWIGS  =    1.312    wigner-seitz radius (au A)                               
   ENMAX  =  245.345; ENMIN  =  184.009 eV                                                          
   ICORE  =        2    local potential                                                             
   LCOR   =        T    correct aug charges                                                         
   LPAW   =        T    paw PP                                                                      
   EAUG   =  322.069                                                                                
   DEXC   =    0.000                                                                                
   RMAX   =    1.950    core radius for proj-oper                                                   
   RAUG   =    1.300    factor for augmentation sphere                                              
   RDEP   =    1.993    radius for radial grids                                                     
   RDEPT  =    1.837    core radius for aug-charge                                                  
                                                                                                    
   Atomic configuration                                                                             
    6 entries                                                                                       
     n  l   j            E        occ.                                                              
     1  0  0.50     -1785.8828   2.0000                                                             
     2  0  0.50      -139.4969   2.0000                                                             
     2  1  1.50       -95.5546   6.0000                                                             
     3  0  0.50       -10.8127   2.0000                                                             
     3  1  0.50        -4.0811   2.0000                                                             
     3  2  1.50        -4.0817   0.0000                                                             
   Description                                                                                      
     l       E           TYP  RCUT    TYP  RCUT                                                     
     0    -10.8127223     23  1.900                                                                 
     0     -7.6451159     23  1.900                                                                 
     1     -4.0811372     23  1.900                                                                 
     1      2.4879257     23  1.900                                                                 
     2     -4.0817478      7  1.900                                                                 
  local pseudopotential read in
  partial core-charges read in
  partial kinetic energy density read in
  atomic valenz-charges read in
  non local Contribution for L=           0  read in
    real space projection operators read in
  non local Contribution for L=           0  read in
    real space projection operators read in
  non local Contribution for L=           1  read in
    real space projection operators read in
  non local Contribution for L=           1  read in
    real space projection operators read in
    PAW grid and wavefunctions read in
 
   number of l-projection  operators is LMAX  =           4
   number of lm-projection operators is LMMAX =           8
 
 -----------------------------------------------------------------------------
|                                                                             |
|               ----> ADVICE to this user running VASP <----                  |
|                                                                             |
|     You have a (more or less) 'small supercell' and for smaller cells       |
|     it is recommended to use the reciprocal-space projection scheme!        |
|     The real-space optimization is not efficient for small cells and it     |
|     is also less accurate ...                                               |
|     Therefore, set LREAL=.FALSE. in the INCAR file.                         |
|                                                                             |
 -----------------------------------------------------------------------------

 Optimization of the real space projectors (new method)

 maximal supplied QI-value         = 19.84
 optimisation between [QCUT,QGAM] = [  6.94, 13.89] = [ 13.51, 54.02] Ry 
 Optimized for a Real-space Cutoff    1.43 Angstroem

   l    n(q)    QCUT    max X(q) W(low)/X(q) W(high)/X(q)  e(spline) 
   0      6     6.945   159.560    0.19E-02    0.13E-02    0.67E-07
   0      6     6.945   115.863    0.19E-02    0.13E-02    0.66E-07
   1      5     6.945    87.792    0.57E-03    0.17E-02    0.11E-06
   1      5     6.945    48.448    0.56E-03    0.16E-02    0.11E-06
  PAW_PBE Si 05Jan2001                  :
 energy of atom  1       EATOM= -103.0669
 kinetic energy error for atom=    0.0129 (will be added to EATOM!!)
 
 
 POSCAR: Si8
  positions in direct lattice
  No initial velocities read in



  MD-specific parameters
                MDALGO =   2
                 CNEXP =     9.000   14.000
 exchange-correlation table for PE
   RHO(1)=    0.500       N(1)  =     2000
   RHO(2)=  100.500       N(2)  =     4000
 


--------------------------------------------------------------------------------------------------------


 ion  position               nearest neighbor table
   1  0.250  0.750  0.250-   2 2.37   4 2.37   6 2.37   8 2.37
   2  0.000  0.000  0.500-   1 2.37   3 2.37   5 2.37   7 2.37
   3  0.250  0.250  0.750-   2 2.37   4 2.37   6 2.37   8 2.37
   4  0.000  0.500  0.000-   1 2.37   3 2.37   5 2.37   7 2.37
   5  0.750  0.750  0.750-   2 2.37   4 2.37   6 2.37   8 2.37
   6  0.500  0.000  0.000-   1 2.37   3 2.37   5 2.37   7 2.37
   7  0.750  0.250  0.250-   2 2.37   4 2.37   6 2.37   8 2.37
   8  0.500  0.500  0.500-   1 2.37   3 2.37   5 2.37   7 2.37
 

IMPORTANT INFORMATION: All symmetrisations will be switched off!
NOSYMM: (Re-)initialisation of all symmetry stuff for point group C_1.


----------------------------------------------------------------------------------------

                                     Primitive cell                                     

  volume of cell :     163.5532

  direct lattice vectors                    reciprocal lattice vectors
     5.468728065  0.000000000  0.000000000     0.182857876  0.000000000  0.000000000
     0.000000000  5.468728065  0.000000000     0.000000000  0.182857876  0.000000000
     0.000000000  0.000000000  5.468728065     0.000000000  0.000000000  0.182857876

  length of vectors
     5.468728065  5.468728065  5.468728065     0.182857876  0.182857876  0.182857876

  position of ions in fractional coordinates (direct lattice)
     0.250000000  0.750000000  0.250000000
     0.000000000  0.000000000  0.500000000
     0.250000000  0.250000000  0.750000000
     0.000000000  0.500000000  0.000000000
     0.750000000  0.750000000  0.750000000
     0.500000000  0.000000000  0.000000000
     0.750000000  0.250000000  0.250000000
     0.500000000  0.500000000  0.500000000

  ion indices of the primitive-cell ions
   primitive index   ion index
                 1           1
                 2           2
                 3           3
                 4           4
                 5           5
                 6           6
                 7           7
                 8           8

----------------------------------------------------------------------------------------

 
 
 KPOINTS: Gamma-point only                        

Automatic generation of k-mesh.
 Grid dimensions read from file:
 generate k-points for:    1    1    1

 Generating k-lattice:

  Cartesian coordinates                     Fractional coordinates (reciprocal lattice)
     0.182857876  0.000000000  0.000000000     1.000000000  0.000000000  0.000000000
     0.000000000  0.182857876  0.000000000     0.000000000  1.000000000  0.000000000
     0.000000000  0.000000000  0.182857876     0.000000000  0.000000000  1.000000000

  Length of vectors
     0.182857876  0.182857876  0.182857876

  Shift w.r.t. Gamma in fractional coordinates (k-lattice)
     0.000000000  0.000000000  0.000000000

 
 Subroutine IBZKPT returns following result:
 ===========================================
 
 Found      1 irreducible k-points:
 
 Following reciprocal coordinates:
            Coordinates               Weight
  0.000000  0.000000  0.000000      1.000000
 
 Following cartesian coordinates:
            Coordinates               Weight
  0.000000  0.000000  0.000000      1.000000
 


--------------------------------------------------------------------------------------------------------




 Dimension of arrays:
   k-points           NKPTS =      1   k-points in BZ     NKDIM =      1   number of bands    NBANDS=     24
   number of dos      NEDOS =    301   number of ions     NIONS =      8
   non local maximal  LDIM  =      4   non local SUM 2l+1 LMDIM =      8
   total plane-waves  NPLWV =   5832
   max r-space proj   IRMAX =    484   max aug-charges    IRDMAX=    553
   dimension x,y,z NGX =    18 NGY =   18 NGZ =   18
   dimension x,y,z NGXF=    24 NGYF=   24 NGZF=   24
   support grid    NGXF=    24 NGYF=   24 NGZF=   24
   ions per type =               8
   NGX,Y,Z   is equivalent  to a cutoff of   5.47,  5.47,  5.47 a.u.
   NGXF,Y,Z  is equivalent  to a cutoff of   7.30,  7.30,  7.30 a.u.

 SYSTEM =  cd Si                                   
 POSCAR =  Si8                                     

 Startparameter for this run:
   NWRITE =      2    write-flag & timer
   PREC   = low       normal or accurate (medium, high low for compatibility)
   ISTART =      0    job   : 0-new  1-cont  2-samecut
   ICHARG =      2    charge: 1-file 2-atom 10-const
   ISPIN  =      1    spin polarized calculation?
   LNONCOLLINEAR =      F non collinear calculations
   LSORBIT =      F    spin-orbit coupling
   INIWAV =      1    electr: 0-lowe 1-rand  2-diag
   LASPH  =      F    aspherical Exc in radial PAW
 Electronic Relaxation 1
   ENCUT  =  184.0 eV  13.52 Ry    3.68 a.u.   6.05  6.05  6.05*2*pi/ulx,y,z
   ENINI  =  184.0     initial cutoff
   ENAUG  =  322.1 eV  augmentation charge cutoff
   NELM   =     60;   NELMIN=  2; NELMDL=-12     # of ELM steps 
   EDIFF  = 0.1E-03   stopping-criterion for ELM
   LREAL  =      T    real-space projection
   NLSPLINE    = F    spline interpolate recip. space projectors
   LCOMPAT=      F    compatible to vasp.4.4
   GGA_COMPAT  = T    GGA compatible to vasp.4.4-vasp.4.6
   LMAXPAW     = -100 max onsite density
   LMAXMIX     =    2 max onsite mixed and CHGCAR
   VOSKOWN=      0    Vosko Wilk Nusair interpolation
   ROPT   =   -0.01000
 Ionic relaxation
   EDIFFG = 0.1E-02   stopping-criterion for IOM
   NSW    =     30    number of steps for IOM
   NBLOCK =      1;   KBLOCK =     30    inner block; outer block 
   IBRION =      0    ionic relax: 0-MD 1-quasi-New 2-CG
   NFREE  =      0    steps in history (QN), initial steepest desc. (CG)
   ISIF   =      2    stress and relaxation
   IWAVPR =     12    prediction:  0-non 1-charg 2-wave 3-comb
   ISYM   =      0    0-nonsym 1-usesym 2-fastsym
   LCORR  =      T    Harris-Foulkes like correction to forces

   POTIM  = 3.0000    time-step for ionic-motion
   TEIN   = 2000.0    initial temperature
   TEBEG  = 2000.0;   TEEND  =2000.0 temperature during run
   SMASS  =   1.00    Nose mass-parameter (am)
   estimated Nose-frequenzy (Omega)   =  0.48E+14 period in steps = 0.43E+02 mass=   0.228E-27a.u.
   SCALEE = 1.0000    scale energy and forces
   NPACO  =    256;   APACO  = 10.0  distance and # of slots for P.C.
   PSTRESS=    0.0 pullay stress

  Mass of Ions in am
   POMASS =  28.09
  Ionic Valenz
   ZVAL   =   4.00
  Atomic Wigner-Seitz radii
   RWIGS  =  -1.00
  virtual crystal weights 
   VCA    =   1.00
   NELECT =      32.0000    total number of electrons
   NUPDOWN=      -1.0000    fix difference up-down

 DOS related values:
   EMIN   =  10.00;   EMAX   =-10.00  energy-range for DOS
   EFERMI =   0.00;   METHOD = LEGACY      
   ISMEAR =     0;   SIGMA  =   0.10  broadening in eV -4-tet -1-fermi 0-gaus
   EFERMI_NEDOS =   21; number of points for ismear=-14 and -15

 Electronic relaxation 2 (details)
   IALGO  =     48    algorithm
   LDIAG  =      T    sub-space diagonalisation (order eigenvalues)
   LSUBROT=      F    optimize rotation matrix (better conditioning)
   TURBO    =      0    0=normal 1=particle mesh
   IRESTART =      0    0=no restart 2=restart with 2 vectors
   NREBOOT  =      0    no. of reboots
   NMIN     =      0    reboot dimension
   EREF     =   0.00    reference energy to select bands
   IMIX   =      4    mixing-type and parameters
     AMIX     =   0.40;   BMIX     =  1.00
     AMIX_MAG =   1.60;   BMIX_MAG =  1.00
     AMIN     =   0.10
     WC   =   100.;   INIMIX=   1;  MIXPRE=   1;  MAXMIX= -45

 Intra band minimization:
   WEIMIN = 0.0010     energy-eigenvalue tresh-hold
   EBREAK =  0.10E-05  absolut break condition
   DEPER  =   0.30     relativ break condition  

   TIME   =   0.40     timestep for ELM

  volume/ion in A,a.u.               =      20.44       137.96
  Fermi-wavevector in a.u.,A,eV,Ry     =   0.950397  1.795990 12.289529  0.903255
  Thomas-Fermi vector in A             =   2.078770
 
 Write flags
   LWAVE        =      T    write WAVECAR
   LDOWNSAMPLE  =      F    k-point downsampling of WAVECAR
   LCHARG       =      T    write CHGCAR
   LVTOT        =      F    write LOCPOT, total local potential
   LVHAR        =      F    write LOCPOT, Hartree potential only
   WRT_POTENTIAL= false  ! write potential to hdf5 file
   LELF         =      F    write electronic localiz. function (ELF)
   LORBIT       =      0    0 simple, 1 ext, 2 COOP (PROOUT), +10 PAW based schemes


 Python interface
   PLUGINS active      =      F    recompile with -DPLUGINS to activate
 
 Dipole corrections
   LMONO      =      F    monopole corrections only (constant potential shift)
   LDIPOL     =      F    correct potential (dipole corrections)
   IDIPOL     =      0    1-x, 2-y, 3-z, 4-all directions 
   EPSILON    =  1.0000000 bulk dielectric constant
   LVACPOTAV  =      F  vacuum potentials using an averaging scheme for the charge density
   VACPOTFLAT =  0.1000000 required flatness to determine vacuum potential
 
Coulomb truncation method
  LTRUNCATE          =      F  Coulomb kernel truncation to be used
  IDIMENSIONALITY    =      3  Dimensionality of cutoff (0 molecules / 2 surfaces)
  ISURFACE           =     -1  Direction of surface normal
  LCOARSEN           =      F  Coarsen the charge grid before padding, preferred

 
 Exchange correlation treatment:
   GGA     = PE    functional components
   XC_C    = 1    coefficients multiplying the functional components
   LIBXC   =     F    Libxc                    
   VOSKOWN =     0    Vosko Wilk Nusair interpolation
   LHFCALC =     F    Hartree Fock is set to
   LHFONE  =     F    Hartree Fock one center treatment
   AEXX    =    0.0000 exact exchange contribution

 Parameters of functionals:
   PE:
     No parameter
 
 Van der Waals corrections
   IVDW    =     0    specifies the selected vdW correction

 Linear response parameters
   LEPSILON=     F    determine dielectric tensor
   LRPA    =     F    only Hartree local field effects (RPA)
   LNABLA  =     F    use nabla operator in PAW spheres
   LVEL    =     F    velocity operator in full k-point grid
   CSHIFT  =0.1000    complex shift for real part using Kramers Kronig
   OMEGAMAX=  -1.0    maximum frequency
   DEG_THRESHOLD= 0.2000000E-02 threshold for treating states as degnerate
   RTIME   =   -0.100 relaxation time in fs
  (WPLASMAI=    0.000 imaginary part of plasma frequency in eV, 0.658/RTIME)
   DFIELD  = 0.0000000 0.0000000 0.0000000 field for delta impulse in time
 
  Optional k-point grid parameters
   LKPOINTS_OPT  =     F    use optional k-point grid
   KPOINTS_OPT_MODE=     1    mode for optional k-point grid
 
 Orbital magnetization related:
   ORBITALMAG=     F  switch on orbital magnetization
   LCHIMAG   =     F  perturbation theory with respect to B field
   DQ        =  0.001000  dq finite difference perturbation B field
   LLRAUG    =     F  two centre corrections for induced B field
   LBONE     =     F  B-component reconstruction in AE one-centre
   LVGVCALC  =     T  calculate vGv susceptibility
   LVGVAPPL  =     F  apply vGv susceptibility instead of pGv for G=0

 Random number generation:
   RANDOM_GENERATOR = DEFAULT
   PCG_SEED         = not used


--------------------------------------------------------------------------------------------------------


 molecular dynamics for ions
   using nose mass (canonical ensemble)
 charge density and potential will be updated during run
 non-spin polarized calculation
 RMM-DIIS sequential band-by-band
 perform sub-space diagonalisation
    before iterative eigenvector-optimisation
 modified Broyden-mixing scheme, WC =      100.0
 initial mixing is a Kerker type mixing with AMIX =  0.4000 and BMIX =      1.0000
 Hartree-type preconditioning will be used
 using additional bands            8
 real space projection scheme for non local part
 use partial core corrections
 calculate Harris-corrections to forces 
   (improved forces if not selfconsistent)
 use gradient corrections 
 use of overlap-Matrix (Vanderbilt PP)
 Gauss-broadening in eV      SIGMA  =   0.10


--------------------------------------------------------------------------------------------------------


  energy-cutoff  :      184.01
  volume of cell :      163.55
      direct lattice vectors                 reciprocal lattice vectors
     5.468728065  0.000000000  0.000000000     0.182857876  0.000000000  0.000000000
     0.000000000  5.468728065  0.000000000     0.000000000  0.182857876  0.000000000
     0.000000000  0.000000000  5.468728065     0.000000000  0.000000000  0.182857876

  length of vectors
     5.468728065  5.468728065  5.468728065     0.182857876  0.182857876  0.182857876


 
 k-points in units of 2pi/SCALE and weight: Gamma-point only                        
   0.00000000  0.00000000  0.00000000       1.000
 
 k-points in reciprocal lattice and weights: Gamma-point only                        
   0.00000000  0.00000000  0.00000000       1.000
 
 position of ions in fractional coordinates (direct lattice) 
   0.25000000  0.75000000  0.25000000
   0.00000000  0.00000000  0.50000000
   0.25000000  0.25000000  0.75000000
   0.00000000  0.50000000  0.00000000
   0.75000000  0.75000000  0.75000000
   0.50000000  0.00000000  0.00000000
   0.75000000  0.25000000  0.25000000
   0.50000000  0.50000000  0.50000000
 
 position of ions in cartesian coordinates  (Angst):
   1.36718202  4.10154605  1.36718202
   0.00000000  0.00000000  2.73436403
   1.36718202  1.36718202  4.10154605
   0.00000000  2.73436403  0.00000000
   4.10154605  4.10154605  4.10154605
   2.73436403  0.00000000  0.00000000
   4.10154605  1.36718202  1.36718202
   2.73436403  2.73436403  2.73436403
 


--------------------------------------------------------------------------------------------------------


 k-point     1 :   0.0000 0.0000 0.0000  plane waves:     925

 maximum and minimum number of plane-waves per node :       925      925

 maximum number of plane-waves:       925
 maximum index in each direction: 
   IXMAX=    6   IYMAX=    6   IZMAX=    6
   IXMIN=   -6   IYMIN=   -6   IZMIN=   -6


 serial   3D FFT for wavefunctions
 parallel 3D FFT for charge:
    minimum data exchange during FFTs selected (reduces bandwidth)


 total amount of memory used by VASP MPI-rank0    31696. kBytes
=======================================================================

   base                                    :      30000. kBytes
   nonlr-proj                              :        997. kBytes
   fftplans                                :        167. kBytes
   grid                                    :        413. kBytes
   one-center                              :         24. kBytes
   wavefun                                 :         95. kBytes
 
     INWAV:  cpu time      0.0006: real time      0.0000
 Broyden mixing: mesh for mixing (old mesh)
   NGX = 13   NGY = 13   NGZ = 13
  (NGX  = 24   NGY  = 24   NGZ  = 24)
  gives a total of   2197 points

 initial charge density was supplied:
 charge density of overlapping atoms calculated
 number of electron      32.0000000 magnetization 
 keeping initial charge density in first step


--------------------------------------------------------------------------------------------------------


 Maximum index for non-local projection operator           69
 Maximum index for augmentation-charges           90 (set IRDMAX)


--------------------------------------------------------------------------------------------------------


 First call to EWALD:  gamma=   0.324
 Maximum number of real-space cells   3x   3x   3
 Maximum number of reciprocal cells   3x   3x   3

    FEWALD:  cpu time      0.0737: real time      0.0018


--------------------------------------- Ionic step        1  -------------------------------------------




--------------------------------------- Iteration      1(   1)  ---------------------------------------


    POTLOK:  cpu time      0.1717: real time      0.0044
    SETDIJ:  cpu time      0.1107: real time      0.0028
    EDDIAG:  cpu time      0.3193: real time      0.0080
  RMM-DIIS:  cpu time      0.2000: real time      0.0050
    ORTHCH:  cpu time      0.0432: real time      0.0011
       DOS:  cpu time      0.0078: real time      0.0002
    --------------------------------------------
      LOOP:  cpu time      0.8535: real time      0.0215

 eigenvalue-minimisations  :    24
 total energy-change (2. order) : 0.7549750E+02  (-0.4681803E+03)
 number of electron      32.0000000 magnetization 
 augmentation part       32.0000000 magnetization 

 Free energy of the ion-electron system (eV)
  ---------------------------------------------------
  alpha Z        PSCENC =        13.17272099
  Ewald energy   TEWEN  =      -907.77962997
  -Hartree energ DENC   =       -45.29355833
  -exchange      EXHF   =         0.00000000
  -V(xc)+E(xc)   XCENC  =       -74.72173449
  PAW double counting   =       704.99039692     -564.24414232
  entropy T*S    EENTRO =        -0.00000000
  eigenvalues    EBANDS =       124.94163860
  atomic energy  EATOM  =       824.43180455
  Solvation  Ediel_sol  =         0.00000000
  ---------------------------------------------------
  free energy    TOTEN  =        75.49749595 eV

  energy without entropy =       75.49749595  energy(sigma->0) =       75.49749595


--------------------------------------------------------------------------------------------------------




--------------------------------------- Iteration      1(   2)  ---------------------------------------


    EDDIAG:  cpu time      0.2309: real time      0.0058
  RMM-DIIS:  cpu time      0.1491: real time      0.0037
    ORTHCH:  cpu time      0.0418: real time      0.0010
       DOS:  cpu time      0.0054: real time      0.0001
    --------------------------------------------
      LOOP:  cpu time      0.4271: real time      0.0107

 eigenvalue-minimisations  :    24
 total energy-change (2. order) :-0.8425268E+02  (-0.8368469E+02)
 number of electron      32.0000000 magnetization 
 augmentation part       32.0000000 magnetization 

 Free energy of the ion-electron system (eV)
  ---------------------------------------------------
  alpha Z        PSCENC =        13.17272099
  Ewald energy   TEWEN  =      -907.77962997
  -Hartree energ DENC   =       -45.29355833
  -exchange      EXHF   =         0.00000000
  -V(xc)+E(xc)   XCENC  =       -74.72173449
  PAW double counting   =       704.99039692     -564.24414232
  entropy T*S    EENTRO =        -0.00000000
  eigenvalues    EBANDS =        40.68895594
  atomic energy  EATOM  =       824.43180455
  Solvation  Ediel_sol  =         0.00000000
  ---------------------------------------------------
  free energy    TOTEN  =        -8.75518671 eV

  energy without entropy =       -8.75518671  energy(sigma->0) =       -8.75518671


--------------------------------------------------------------------------------------------------------




--------------------------------------- Iteration      1(   3)  ---------------------------------------


    EDDIAG:  cpu time      0.1950: real time      0.0049
  RMM-DIIS:  cpu time      0.1368: real time      0.0035
    ORTHCH:  cpu time      0.0513: real time      0.0012
       DOS:  cpu time      0.0085: real time      0.0002
    --------------------------------------------
      LOOP:  cpu time      0.3916: real time      0.0098

 eigenvalue-minimisations  :    24
 total energy-change (2. order) :-0.1389590E+02  (-0.1346271E+02)
 number of electron      32.0000000 magnetization 
 augmentation part       32.0000000 magnetization 

 Free energy of the ion-electron system (eV)
  ---------------------------------------------------
  alpha Z        PSCENC =        13.17272099
  Ewald energy   TEWEN  =      -907.77962997
  -Hartree energ DENC   =       -45.29355833
  -exchange      EXHF   =         0.00000000
  -V(xc)+E(xc)   XCENC  =       -74.72173449
  PAW double counting   =       704.99039692     -564.24414232
  entropy T*S    EENTRO =        -0.12091184
  eigenvalues    EBANDS =        26.91396966
  atomic energy  EATOM  =       824.43180455
  Solvation  Ediel_sol  =         0.00000000
  ---------------------------------------------------
  free energy    TOTEN  =       -22.65108482 eV

  energy without entropy =      -22.53017299  energy(sigma->0) =      -22.59062891


--------------------------------------------------------------------------------------------------------




--------------------------------------- Iteration      1(   4)  ---------------------------------------


    EDDIAG:  cpu time      0.1964: real time      0.0049
  RMM-DIIS:  cpu time      0.1393: real time      0.0035
    ORTHCH:  cpu time      0.0418: real time      0.0010
       DOS:  cpu time      0.0075: real time      0.0002
    --------------------------------------------
      LOOP:  cpu time      0.3856: real time      0.0096

 eigenvalue-minimisations  :    24
 total energy-change (2. order) :-0.6879272E+01  (-0.4361437E+01)
 number of electron      32.0000000 magnetization 
 augmentation part       32.0000000 magnetization 

 Free energy of the ion-electron system (eV)
  ---------------------------------------------------
  alpha Z        PSCENC =        13.17272099
  Ewald energy   TEWEN  =      -907.77962997
  -Hartree energ DENC   =       -45.29355833
  -exchange      EXHF   =         0.00000000
  -V(xc)+E(xc)   XCENC  =       -74.72173449
  PAW double counting   =       704.99039692     -564.24414232
  entropy T*S    EENTRO =        -0.12541702
  eigenvalues    EBANDS =        20.03920306
  atomic energy  EATOM  =       824.43180455
  Solvation  Ediel_sol  =         0.00000000
  ---------------------------------------------------
  free energy    TOTEN  =       -29.53035661 eV

  energy without entropy =      -29.40493959  energy(sigma->0) =      -29.46764810


--------------------------------------------------------------------------------------------------------




--------------------------------------- Iteration      1(   5)  ---------------------------------------


    EDDIAG:  cpu time      0.1646: real time      0.0041
  RMM-DIIS:  cpu time      0.1372: real time      0.0035
    ORTHCH:  cpu time      0.0377: real time      0.0008
       DOS:  cpu time      0.0068: real time      0.0002
    --------------------------------------------
      LOOP:  cpu time      0.3458: real time      0.0086

 eigenvalue-minimisations  :    24
 total energy-change (2. order) :-0.2036435E+01  (-0.1415886E+01)
 number of electron      32.0000000 magnetization 
 augmentation part       32.0000000 magnetization 

 Free energy of the ion-electron system (eV)
  ---------------------------------------------------
  alpha Z        PSCENC =        13.17272099
  Ewald energy   TEWEN  =      -907.77962997
  -Hartree energ DENC   =       -45.29355833
  -exchange      EXHF   =         0.00000000
  -V(xc)+E(xc)   XCENC  =       -74.72173449
  PAW double counting   =       704.99039692     -564.24414232
  entropy T*S    EENTRO =        -0.03857217
  eigenvalues    EBANDS =        17.91592368
  atomic energy  EATOM  =       824.43180455
  Solvation  Ediel_sol  =         0.00000000
  ---------------------------------------------------
  free energy    TOTEN  =       -31.56679114 eV

  energy without entropy =      -31.52821897  energy(sigma->0) =      -31.54750505


--------------------------------------------------------------------------------------------------------




--------------------------------------- Iteration      1(   6)  ---------------------------------------


    EDDIAG:  cpu time      0.1481: real time      0.0037
  RMM-DIIS:  cpu time      0.1367: real time      0.0035
    ORTHCH:  cpu time      0.0237: real time      0.0005
       DOS:  cpu time      0.0058: real time      0.0001
    --------------------------------------------
      LOOP:  cpu time      0.3143: real time      0.0079

 eigenvalue-minimisations  :    24
 total energy-change (2. order) :-0.1150210E+01  (-0.7736393E+00)
 number of electron      32.0000000 magnetization 
 augmentation part       32.0000000 magnetization 

 Free energy of the ion-electron system (eV)
  ---------------------------------------------------
  alpha Z        PSCENC =        13.17272099
  Ewald energy   TEWEN  =      -907.77962997
  -Hartree energ DENC   =       -45.29355833
  -exchange      EXHF   =         0.00000000
  -V(xc)+E(xc)   XCENC  =       -74.72173449
  PAW double counting   =       704.99039692     -564.24414232
  entropy T*S    EENTRO =        -0.00052110
  eigenvalues    EBANDS =        16.72766230
  atomic energy  EATOM  =       824.43180455
  Solvation  Ediel_sol  =         0.00000000
  ---------------------------------------------------
  free energy    TOTEN  =       -32.71700145 eV

  energy without entropy =      -32.71648035  energy(sigma->0) =      -32.71674090


--------------------------------------------------------------------------------------------------------




--------------------------------------- Iteration      1(   7)  ---------------------------------------


    EDDIAG:  cpu time      0.1447: real time      0.0036
  RMM-DIIS:  cpu time      0.1358: real time      0.0035
    ORTHCH:  cpu time      0.0244: real time      0.0005
       DOS:  cpu time      0.0055: real time      0.0001
    --------------------------------------------
      LOOP:  cpu time      0.3104: real time      0.0078

 eigenvalue-minimisations  :    24
 total energy-change (2. order) :-0.6727788E+00  (-0.5048839E+00)
 number of electron      32.0000000 magnetization 
 augmentation part       32.0000000 magnetization 

 Free energy of the ion-electron system (eV)
  ---------------------------------------------------
  alpha Z        PSCENC =        13.17272099
  Ewald energy   TEWEN  =      -907.77962997
  -Hartree energ DENC   =       -45.29355833
  -exchange      EXHF   =         0.00000000
  -V(xc)+E(xc)   XCENC  =       -74.72173449
  PAW double counting   =       704.99039692     -564.24414232
  entropy T*S    EENTRO =        -0.00000340
  eigenvalues    EBANDS =        16.05436585
  atomic energy  EATOM  =       824.43180455
  Solvation  Ediel_sol  =         0.00000000
  ---------------------------------------------------
  free energy    TOTEN  =       -33.38978021 eV

  energy without entropy =      -33.38977680  energy(sigma->0) =      -33.38977851


--------------------------------------------------------------------------------------------------------




--------------------------------------- Iteration      1(   8)  ---------------------------------------


    EDDIAG:  cpu time      0.1482: real time      0.0037
  RMM-DIIS:  cpu time      0.1412: real time      0.0035
    ORTHCH:  cpu time      0.0185: real time      0.0005
       DOS:  cpu time      0.0047: real time      0.0001
    --------------------------------------------
      LOOP:  cpu time      0.3127: real time      0.0078

 eigenvalue-minimisations  :    24
 total energy-change (2. order) :-0.4010715E+00  (-0.3294011E+00)
 number of electron      32.0000000 magnetization 
 augmentation part       32.0000000 magnetization 

 Free energy of the ion-electron system (eV)
  ---------------------------------------------------
  alpha Z        PSCENC =        13.17272099
  Ewald energy   TEWEN  =      -907.77962997
  -Hartree energ DENC   =       -45.29355833
  -exchange      EXHF   =         0.00000000
  -V(xc)+E(xc)   XCENC  =       -74.72173449
  PAW double counting   =       704.99039692     -564.24414232
  entropy T*S    EENTRO =        -0.00000003
  eigenvalues    EBANDS =        15.65329096
  atomic energy  EATOM  =       824.43180455
  Solvation  Ediel_sol  =         0.00000000
  ---------------------------------------------------
  free energy    TOTEN  =       -33.79085172 eV

  energy without entropy =      -33.79085169  energy(sigma->0) =      -33.79085171


--------------------------------------------------------------------------------------------------------




--------------------------------------- Iteration      1(   9)  ---------------------------------------


    EDDIAG:  cpu time      0.1477: real time      0.0037
  RMM-DIIS:  cpu time      0.3204: real time      0.0080
    ORTHCH:  cpu time      0.0194: real time      0.0005
       DOS:  cpu time      0.0040: real time      0.0001
    --------------------------------------------
      LOOP:  cpu time      0.4915: real time      0.0123

 eigenvalue-minimisations  :    53
 total energy-change (2. order) :-0.6778278E+00  (-0.6588048E+00)
 number of electron      32.0000000 magnetization 
 augmentation part       32.0000000 magnetization 

 Free energy of the ion-electron system (eV)
  ---------------------------------------------------
  alpha Z        PSCENC =        13.17272099
  Ewald energy   TEWEN  =      -907.77962997
  -Hartree energ DENC   =       -45.29355833
  -exchange      EXHF   =         0.00000000
  -V(xc)+E(xc)   XCENC  =       -74.72173449
  PAW double counting   =       704.99039692     -564.24414232
  entropy T*S    EENTRO =        -0.00000000
  eigenvalues    EBANDS =        14.97546316
  atomic energy  EATOM  =       824.43180455
  Solvation  Ediel_sol  =         0.00000000
  ---------------------------------------------------
  free energy    TOTEN  =       -34.46867949 eV

  energy without entropy =      -34.46867949  energy(sigma->0) =      -34.46867949


--------------------------------------------------------------------------------------------------------




--------------------------------------- Iteration      1(  10)  ---------------------------------------


    EDDIAG:  cpu time      0.1447: real time      0.0036
  RMM-DIIS:  cpu time      0.2606: real time      0.0065
    ORTHCH:  cpu time      0.0182: real time      0.0005
       DOS:  cpu time      0.0043: real time      0.0001
    --------------------------------------------
      LOOP:  cpu time      0.4277: real time      0.0107

 eigenvalue-minimisations  :    48
 total energy-change (2. order) :-0.5577433E-01  (-0.1875534E-01)
 number of electron      32.0000000 magnetization 
 augmentation part       32.0000000 magnetization 

 Free energy of the ion-electron system (eV)
  ---------------------------------------------------
  alpha Z        PSCENC =        13.17272099
  Ewald energy   TEWEN  =      -907.77962997
  -Hartree energ DENC   =       -45.29355833
  -exchange      EXHF   =         0.00000000
  -V(xc)+E(xc)   XCENC  =       -74.72173449
  PAW double counting   =       704.99039692     -564.24414232
  entropy T*S    EENTRO =        -0.00000000
  eigenvalues    EBANDS =        14.91968883
  atomic energy  EATOM  =       824.43180455
  Solvation  Ediel_sol  =         0.00000000
  ---------------------------------------------------
  free energy    TOTEN  =       -34.52445382 eV

  energy without entropy =      -34.52445382  energy(sigma->0) =      -34.52445382


--------------------------------------------------------------------------------------------------------




--------------------------------------- Iteration      1(  11)  ---------------------------------------


    EDDIAG:  cpu time      0.1489: real time      0.0037
  RMM-DIIS:  cpu time      0.2620: real time      0.0066
    ORTHCH:  cpu time      0.0193: real time      0.0005
       DOS:  cpu time      0.0040: real time      0.0001
    --------------------------------------------
      LOOP:  cpu time      0.4343: real time      0.0109

 eigenvalue-minimisations  :    45
 total energy-change (2. order) :-0.3602810E-02  (-0.2815124E-02)
 number of electron      32.0000000 magnetization 
 augmentation part       32.0000000 magnetization 

 Free energy of the ion-electron system (eV)
  ---------------------------------------------------
  alpha Z        PSCENC =        13.17272099
  Ewald energy   TEWEN  =      -907.77962997
  -Hartree energ DENC   =       -45.29355833
  -exchange      EXHF   =         0.00000000
  -V(xc)+E(xc)   XCENC  =       -74.72173449
  PAW double counting   =       704.99039692     -564.24414232
  entropy T*S    EENTRO =        -0.00000000
  eigenvalues    EBANDS =        14.91608602
  atomic energy  EATOM  =       824.43180455
  Solvation  Ediel_sol  =         0.00000000
  ---------------------------------------------------
  free energy    TOTEN  =       -34.52805663 eV

  energy without entropy =      -34.52805663  energy(sigma->0) =      -34.52805663


--------------------------------------------------------------------------------------------------------




--------------------------------------- Iteration      1(  12)  ---------------------------------------


    EDDIAG:  cpu time      0.1429: real time      0.0036
  RMM-DIIS:  cpu time      0.2261: real time      0.0057
    ORTHCH:  cpu time      0.0178: real time      0.0004
       DOS:  cpu time      0.0039: real time      0.0001
    CHARGE:  cpu time      0.0731: real time      0.0018
    MIXING:  cpu time      0.0100: real time      0.0003
    --------------------------------------------
      LOOP:  cpu time      0.4751: real time      0.0119

 eigenvalue-minimisations  :    39
 total energy-change (2. order) :-0.7141571E-03  (-0.6941673E-03)
 number of electron      31.9997125 magnetization 
 augmentation part       -1.7707544 magnetization 

 Broyden mixing:
  rms(total) = 0.14072E+01    rms(broyden)= 0.14071E+01
  rms(prec ) = 0.19147E+01
  weight for this iteration     100.00

 Free energy of the ion-electron system (eV)
  ---------------------------------------------------
  alpha Z        PSCENC =        13.17272099
  Ewald energy   TEWEN  =      -907.77962997
  -Hartree energ DENC   =       -45.29355833
  -exchange      EXHF   =         0.00000000
  -V(xc)+E(xc)   XCENC  =       -74.72173449
  PAW double counting   =       704.99039692     -564.24414232
  entropy T*S    EENTRO =        -0.00000000
  eigenvalues    EBANDS =        14.91537186
  atomic energy  EATOM  =       824.43180455
  Solvation  Ediel_sol  =         0.00000000
  ---------------------------------------------------
  free energy    TOTEN  =       -34.52877079 eV

  energy without entropy =      -34.52877079  energy(sigma->0) =      -34.52877079


--------------------------------------------------------------------------------------------------------




--------------------------------------- Iteration      1(  13)  ---------------------------------------


    POTLOK:  cpu time      0.1024: real time      0.0025
    SETDIJ:  cpu time      0.0546: real time      0.0014
    EDDIAG:  cpu time      0.1377: real time      0.0034
  RMM-DIIS:  cpu time      0.3652: real time      0.0091
    ORTHCH:  cpu time      0.0195: real time      0.0005
       DOS:  cpu time      0.0048: real time      0.0001
    CHARGE:  cpu time      0.0501: real time      0.0013
    MIXING:  cpu time      0.0118: real time      0.0003
    --------------------------------------------
      LOOP:  cpu time      0.7461: real time      0.0187

 eigenvalue-minimisations  :    70
 total energy-change (2. order) : 0.1023570E+01  (-0.5154739E-01)
 number of electron      31.9997183 magnetization 
 augmentation part       -1.7348650 magnetization 

 Broyden mixing:
  rms(total) = 0.88737E+00    rms(broyden)= 0.88736E+00
  rms(prec ) = 0.11786E+01
  weight for this iteration     100.00

 eigenvalues of (default mixing * dielectric matrix)
  average eigenvalue GAMMA=   2.6883
  2.6883

 Free energy of the ion-electron system (eV)
  ---------------------------------------------------
  alpha Z        PSCENC =        13.17272099
  Ewald energy   TEWEN  =      -907.77962997
  -Hartree energ DENC   =       -54.29169337
  -exchange      EXHF   =         0.00000000
  -V(xc)+E(xc)   XCENC  =       -73.38526508
  PAW double counting   =      2054.48776337    -1914.29011596
  entropy T*S    EENTRO =        -0.00000000
  eigenvalues    EBANDS =        24.14921462
  atomic energy  EATOM  =       824.43180455
  Solvation  Ediel_sol  =         0.00000000
  ---------------------------------------------------
  free energy    TOTEN  =       -33.50520085 eV

  energy without entropy =      -33.50520085  energy(sigma->0) =      -33.50520085


--------------------------------------------------------------------------------------------------------




--------------------------------------- Iteration      1(  14)  ---------------------------------------


    POTLOK:  cpu time      0.0866: real time      0.0021
    SETDIJ:  cpu time      0.0533: real time      0.0013
    EDDIAG:  cpu time      0.1340: real time      0.0033
  RMM-DIIS:  cpu time      0.4000: real time      0.0100
    ORTHCH:  cpu time      0.0190: real time      0.0005
       DOS:  cpu time      0.0056: real time      0.0001
    CHARGE:  cpu time      0.0492: real time      0.0012
    MIXING:  cpu time      0.0112: real time      0.0003
    --------------------------------------------
      LOOP:  cpu time      0.7589: real time      0.0190

 eigenvalue-minimisations  :    80
 total energy-change (2. order) : 0.4012035E+00  (-0.1168491E+00)
 number of electron      31.9997255 magnetization 
 augmentation part       -1.6906623 magnetization 

 Broyden mixing:
  rms(total) = 0.56484E-01    rms(broyden)= 0.56475E-01
  rms(prec ) = 0.89101E-01
  weight for this iteration     100.00

 eigenvalues of (default mixing * dielectric matrix)
  average eigenvalue GAMMA=   2.0625
  1.7501  2.3749

 Free energy of the ion-electron system (eV)
  ---------------------------------------------------
  alpha Z        PSCENC =        13.17272099
  Ewald energy   TEWEN  =      -907.77962997
  -Hartree energ DENC   =       -70.79461481
  -exchange      EXHF   =         0.00000000
  -V(xc)+E(xc)   XCENC  =       -70.91875997
  PAW double counting   =      6089.20777371    -5949.75666696
  entropy T*S    EENTRO =        -0.00004252
  eigenvalues    EBANDS =        39.33341766
  atomic energy  EATOM  =       824.43180455
  Solvation  Ediel_sol  =         0.00000000
  ---------------------------------------------------
  free energy    TOTEN  =       -33.10399732 eV

  energy without entropy =      -33.10395480  energy(sigma->0) =      -33.10397606


--------------------------------------------------------------------------------------------------------




--------------------------------------- Iteration      1(  15)  ---------------------------------------


    POTLOK:  cpu time      0.0855: real time      0.0021
    SETDIJ:  cpu time      0.0521: real time      0.0013
    EDDIAG:  cpu time      0.1334: real time      0.0033
  RMM-DIIS:  cpu time      0.2600: real time      0.0065
    ORTHCH:  cpu time      0.0217: real time      0.0005
       DOS:  cpu time      0.0061: real time      0.0002
    CHARGE:  cpu time      0.0640: real time      0.0016
    MIXING:  cpu time      0.0126: real time      0.0003
    --------------------------------------------
      LOOP:  cpu time      0.6351: real time      0.0159

 eigenvalue-minimisations  :    49
 total energy-change (2. order) :-0.1825752E-01  (-0.1452416E-02)
 number of electron      31.9997246 magnetization 
 augmentation part       -1.6959632 magnetization 

 Broyden mixing:
  rms(total) = 0.21679E-01    rms(broyden)= 0.21679E-01
  rms(prec ) = 0.34244E-01
  weight for this iteration     100.00

 eigenvalues of (default mixing * dielectric matrix)
  average eigenvalue GAMMA=   2.1175
  1.2115  2.8008  2.3402

 Free energy of the ion-electron system (eV)
  ---------------------------------------------------
  alpha Z        PSCENC =        13.17272099
  Ewald energy   TEWEN  =      -907.77962997
  -Hartree energ DENC   =       -70.04048630
  -exchange      EXHF   =         0.00000000
  -V(xc)+E(xc)   XCENC  =       -70.99846817
  PAW double counting   =      6028.93347520    -5889.32174335
  entropy T*S    EENTRO =        -0.00000873
  eigenvalues    EBANDS =        38.48008096
  atomic energy  EATOM  =       824.43180455
  Solvation  Ediel_sol  =         0.00000000
  ---------------------------------------------------
  free energy    TOTEN  =       -33.12225483 eV

  energy without entropy =      -33.12224610  energy(sigma->0) =      -33.12225047


--------------------------------------------------------------------------------------------------------




--------------------------------------- Iteration      1(  16)  ---------------------------------------


    POTLOK:  cpu time      0.0841: real time      0.0021
    SETDIJ:  cpu time      0.0465: real time      0.0012
    EDDIAG:  cpu time      0.1354: real time      0.0034
  RMM-DIIS:  cpu time      0.2579: real time      0.0065
    ORTHCH:  cpu time      0.0193: real time      0.0005
       DOS:  cpu time      0.0065: real time      0.0002
    CHARGE:  cpu time      0.0488: real time      0.0012
    MIXING:  cpu time      0.0120: real time      0.0003
    --------------------------------------------
      LOOP:  cpu time      0.6108: real time      0.0153

 eigenvalue-minimisations  :    49
 total energy-change (2. order) :-0.6349589E-02  (-0.4629822E-03)
 number of electron      31.9997244 magnetization 
 augmentation part       -1.6974245 magnetization 

 Broyden mixing:
  rms(total) = 0.15722E-01    rms(broyden)= 0.15722E-01
  rms(prec ) = 0.16506E-01
  weight for this iteration     100.00

 eigenvalues of (default mixing * dielectric matrix)
  average eigenvalue GAMMA=   1.9300
  2.6611  2.1367  2.0460  0.8760

 Free energy of the ion-electron system (eV)
  ---------------------------------------------------
  alpha Z        PSCENC =        13.17272099
  Ewald energy   TEWEN  =      -907.77962997
  -Hartree energ DENC   =       -70.38781152
  -exchange      EXHF   =         0.00000000
  -V(xc)+E(xc)   XCENC  =       -70.92699429
  PAW double counting   =      6135.04559851    -5995.38243152
  entropy T*S    EENTRO =        -0.00000456
  eigenvalues    EBANDS =        38.69814339
  atomic energy  EATOM  =       824.43180455
  Solvation  Ediel_sol  =         0.00000000
  ---------------------------------------------------
  free energy    TOTEN  =       -33.12860442 eV

  energy without entropy =      -33.12859986  energy(sigma->0) =      -33.12860214


--------------------------------------------------------------------------------------------------------




--------------------------------------- Iteration      1(  17)  ---------------------------------------


    POTLOK:  cpu time      0.0835: real time      0.0021
    SETDIJ:  cpu time      0.0474: real time      0.0012
    EDDIAG:  cpu time      0.1338: real time      0.0033
  RMM-DIIS:  cpu time      0.2228: real time      0.0056
    ORTHCH:  cpu time      0.0185: real time      0.0005
       DOS:  cpu time      0.0057: real time      0.0001
    CHARGE:  cpu time      0.0497: real time      0.0012
    MIXING:  cpu time      0.0164: real time      0.0004
    --------------------------------------------
      LOOP:  cpu time      0.5770: real time      0.0144

 eigenvalue-minimisations  :    40
 total energy-change (2. order) :-0.1306409E-03  (-0.3596273E-04)
 number of electron      31.9997244 magnetization 
 augmentation part       -1.6971140 magnetization 

 Broyden mixing:
  rms(total) = 0.21603E-02    rms(broyden)= 0.21601E-02
  rms(prec ) = 0.32456E-02
  weight for this iteration     100.00

 eigenvalues of (default mixing * dielectric matrix)
  average eigenvalue GAMMA=   1.9939
  2.9810  2.6653  2.2219  1.0507  1.0507

 Free energy of the ion-electron system (eV)
  ---------------------------------------------------
  alpha Z        PSCENC =        13.17272099
  Ewald energy   TEWEN  =      -907.77962997
  -Hartree energ DENC   =       -70.49747648
  -exchange      EXHF   =         0.00000000
  -V(xc)+E(xc)   XCENC  =       -70.92013440
  PAW double counting   =      6040.77251227    -5901.12610695
  entropy T*S    EENTRO =        -0.00000480
  eigenvalues    EBANDS =        38.81757973
  atomic energy  EATOM  =       824.43180455
  Solvation  Ediel_sol  =         0.00000000
  ---------------------------------------------------
  free energy    TOTEN  =       -33.12873506 eV

  energy without entropy =      -33.12873026  energy(sigma->0) =      -33.12873266


--------------------------------------------------------------------------------------------------------




--------------------------------------- Iteration      1(  18)  ---------------------------------------


    POTLOK:  cpu time      0.0826: real time      0.0021
    SETDIJ:  cpu time      0.0473: real time      0.0012
    EDDIAG:  cpu time      0.1322: real time      0.0033
  RMM-DIIS:  cpu time      0.1775: real time      0.0044
    ORTHCH:  cpu time      0.0177: real time      0.0004
       DOS:  cpu time      0.0052: real time      0.0001
    --------------------------------------------
      LOOP:  cpu time      0.4619: real time      0.0115

 eigenvalue-minimisations  :    32
 total energy-change (2. order) :-0.2620931E-05  (-0.5019902E-05)
 number of electron      31.9997244 magnetization 
 augmentation part       -1.6971140 magnetization 

 Free energy of the ion-electron system (eV)
  ---------------------------------------------------
  alpha Z        PSCENC =        13.17272099
  Ewald energy   TEWEN  =      -907.77962997
  -Hartree energ DENC   =       -70.46761058
  -exchange      EXHF   =         0.00000000
  -V(xc)+E(xc)   XCENC  =       -70.92340079
  PAW double counting   =      6031.13524390    -5891.48201111
  entropy T*S    EENTRO =        -0.00000453
  eigenvalues    EBANDS =        38.78414986
  atomic energy  EATOM  =       824.43180455
  Solvation  Ediel_sol  =         0.00000000
  ---------------------------------------------------
  free energy    TOTEN  =       -33.12873768 eV

  energy without entropy =      -33.12873315  energy(sigma->0) =      -33.12873542


--------------------------------------------------------------------------------------------------------




 average (electrostatic) potential at core
  the test charge radii are     0.9892
  (the norm of the test charge is              1.0002)
       1 -82.9682       2 -82.9693       3 -82.9682       4 -82.9693       5 -82.9682
       6 -82.9694       7 -82.9682       8 -82.9693
 
 
 
 E-fermi :   6.2966     XC(G=0):  -9.1059     alpha+bet :-11.7317

 val. band max:        5.9614318050   @ k =   0.0000   0.0000   0.0000
 cond. band min:       6.6411199180   @ k =   0.0000   0.0000   0.0000
 fundamental gap:      0.6796881130
 Fermi energy:         6.2966052256

 k-point     1 :       0.0000    0.0000    0.0000
  band No.  band energies     occupation 
      1      -5.9330      2.00000
      2      -1.8400      2.00000
      3      -1.8400      2.00000
      4      -1.8399      2.00000
      5      -1.8399      2.00000
      6      -1.8399      2.00000
      7      -1.8399      2.00000
      8       3.0800      2.00000
      9       3.0800      2.00000
     10       3.0800      2.00000
     11       3.0801      2.00000
     12       3.0801      2.00000
     13       3.0802      2.00000
     14       5.9614      2.00000
     15       5.9614      2.00000
     16       5.9614      2.00000
     17       6.6411      0.00000
     18       6.6412      0.00000
     19       6.6412      0.00000
     20       6.6412      0.00000
     21       6.6414      0.00000
     22       6.6436      0.00000
     23       8.4000      0.00000
     24       8.5016      0.00000


--------------------------------------------------------------------------------------------------------


 soft charge-density along one line, spin component           1
         0         1         2         3         4         5         6         7         8         9
 total charge-density along one line
 
 pseudopotential strength for first ion, spin component:           1
 18.393  25.661   0.000   0.000  -0.000   0.000   0.000  -0.000
 25.661  35.806   0.000   0.000  -0.000   0.000   0.000  -0.000
  0.000   0.000   4.178   0.000  -0.000   7.785   0.000  -0.000
  0.000   0.000   0.000   4.178   0.000   0.000   7.785   0.000
 -0.000  -0.000  -0.000   0.000   4.178  -0.000   0.000   7.785
  0.000   0.000   7.785   0.000  -0.000  14.518   0.000  -0.000
  0.000   0.000   0.000   7.785   0.000   0.000  14.518   0.000
 -0.000  -0.000  -0.000   0.000   7.785  -0.000   0.000  14.518
 total augmentation occupancy for first ion, spin component:           1
  7.449  -3.129  -0.000   0.000   0.000   0.000   0.000  -0.000
 -3.129   1.336   0.000  -0.000  -0.000  -0.000   0.000   0.000
 -0.000   0.000   4.369  -0.000   0.000  -1.175   0.000  -0.000
  0.000  -0.000  -0.000   4.369   0.000   0.000  -1.175  -0.000
  0.000  -0.000   0.000   0.000   4.369   0.000  -0.000  -1.175
  0.000  -0.000  -1.175   0.000   0.000   0.326  -0.000   0.000
  0.000   0.000   0.000  -1.175  -0.000  -0.000   0.326   0.000
 -0.000   0.000  -0.000  -0.000  -1.175   0.000   0.000   0.326


------------------------ aborting loop because EDIFF is reached ----------------------------------------


    CHARGE:  cpu time      0.0511: real time      0.0013
    FORLOC:  cpu time      0.0246: real time      0.0007
    FORNL :  cpu time      0.1612: real time      0.0042
    STRESS:  cpu time      0.5002: real time      0.0126
    FORCOR:  cpu time      0.0638: real time      0.0015
    FORHAR:  cpu time      0.0231: real time      0.0006
    MIXING:  cpu time      0.0133: real time      0.0004
    OFIELD:  cpu time      0.0017: real time      0.0000

  FORCE on cell =-STRESS in cart. coord.  units (eV):
  Direction    XX          YY          ZZ          XY          YZ          ZX
  --------------------------------------------------------------------------------------
  Alpha Z    13.17272    13.17272    13.17272
  Ewald    -302.59373  -302.59373  -302.59373    -0.00000     0.00000    -0.00000
  Hartree    23.49025    23.49029    23.49027    -0.00000    -0.00000     0.00005
  E(xc)    -102.84667  -102.84662  -102.84665    -0.00000    -0.00000     0.00002
  Local    -124.83036  -124.82975  -124.83007    -0.00002    -0.00004     0.00032
  n-local   305.47634   305.47597   305.47617     0.00003     0.00005    -0.00053
  augment   -43.12619   -43.12607   -43.12613    -0.00001    -0.00001     0.00010
  Kinetic   240.03852   240.03638   240.03751    -0.00004    -0.00006     0.00056
  Fock        0.00000     0.00000     0.00000     0.00000     0.00000     0.00000
  -------------------------------------------------------------------------------------
  Total       8.78089     8.77920     8.78009    -0.00003    -0.00006     0.00052
  in kB      86.01812    86.00165    86.01033    -0.00033    -0.00058     0.00511
  external pressure =       86.01 kB  Pullay stress =        0.00 kB

  kinetic pressure (ideal gas correction) =     11.82 kB
  total pressure  =     97.83 kB
  Total+kin.    92.733      94.016     106.736      -0.448       0.154       2.744

 VOLUME and BASIS-vectors are now :
 -----------------------------------------------------------------------------
  energy-cutoff  :      184.01
  volume of cell :      163.55
      direct lattice vectors                 reciprocal lattice vectors
     5.468728065  0.000000000  0.000000000     0.182857876  0.000000000  0.000000000
     0.000000000  5.468728065  0.000000000     0.000000000  0.182857876  0.000000000
     0.000000000  0.000000000  5.468728065     0.000000000  0.000000000  0.182857876

  length of vectors
     5.468728065  5.468728065  5.468728065     0.182857876  0.182857876  0.182857876


 FORCES acting on ions
    electron-ion (+dipol)            ewald-force                    non-local-force                 convergence-correction
 -----------------------------------------------------------------------------------------------
   -.704E-03 0.761E-03 -.119E-02   -.222E-15 0.444E-15 0.224E-14   0.530E-03 -.893E-03 0.160E-02   0.149E-04 -.122E-03 0.131E-04
   -.554E-03 0.112E-02 -.139E-02   -.300E-14 -.305E-14 -.224E-14   0.522E-03 -.116E-02 0.158E-02   -.151E-03 0.615E-04 0.157E-03
   -.896E-03 0.349E-03 -.113E-02   -.222E-15 -.444E-15 0.313E-14   0.820E-03 -.689E-03 0.145E-02   0.292E-04 0.947E-04 0.873E-05
   -.513E-03 0.136E-02 -.681E-03   -.330E-14 -.225E-14 -.320E-14   0.518E-03 -.123E-02 0.103E-02   -.141E-03 -.326E-04 -.111E-03
   -.302E-03 0.569E-03 -.128E-02   -.224E-14 0.313E-14 0.313E-14   0.363E-03 -.714E-03 0.149E-02   -.201E-03 -.188E-04 0.118E-03
   -.641E-03 0.123E-02 -.130E-02   0.271E-14 -.592E-15 -.320E-14   0.432E-03 -.123E-02 0.178E-02   0.127E-04 0.734E-05 -.664E-04
   -.379E-03 0.465E-03 -.903E-03   -.224E-14 0.224E-14 0.224E-14   0.504E-03 -.735E-03 0.122E-02   -.174E-03 0.470E-04 -.345E-04
   -.807E-03 0.140E-02 -.132E-02   0.273E-14 0.363E-15 -.231E-14   0.881E-03 -.129E-02 0.149E-02   -.533E-04 -.601E-04 0.129E-03
 -----------------------------------------------------------------------------------------------
   -.480E-02 0.725E-02 -.919E-02   -.579E-14 -.157E-15 -.200E-15   0.457E-02 -.795E-02 0.116E-01   -.663E-03 -.229E-04 0.213E-03
 
 
 POSITION                                       TOTAL-FORCE (eV/Angst)
 -----------------------------------------------------------------------------------
      1.36718      4.10155      1.36718        -0.000159     -0.000253      0.000425
      0.00000      0.00000      2.73436        -0.000183      0.000018      0.000349
      1.36718      1.36718      4.10155        -0.000047     -0.000245      0.000331
      0.00000      2.73436      0.00000        -0.000137      0.000091      0.000237
      4.10155      4.10155      4.10155        -0.000140     -0.000164      0.000330
      2.73436      0.00000      0.00000        -0.000196     -0.000000      0.000410
      4.10155      1.36718      1.36718        -0.000049     -0.000223      0.000280
      2.73436      2.73436      2.73436         0.000021      0.000054      0.000299
 -----------------------------------------------------------------------------------
    total drift:                               -0.000890     -0.000722      0.002661


--------------------------------------------------------------------------------------------------------



  FREE ENERGIE OF THE ION-ELECTRON SYSTEM (eV)
  ---------------------------------------------------
  free  energy   TOTEN  =       -33.12873768 eV

  energy  without entropy=      -33.12873315  energy(sigma->0) =      -33.12873542
 


--------------------------------------------------------------------------------------------------------


    POTLOK:  cpu time      0.1369: real time      0.0034


--------------------------------------------------------------------------------------------------------


           RANDOM_SEED =         139596256                0                0
           RANDOM_SEED =         139596256               48                0
   IONSTEP:  cpu time      0.0462: real time      0.0012

  ENERGY OF THE ELECTRON-ION-THERMOSTAT SYSTEM (eV)
  ---------------------------------------------------
% ion-electron   TOTEN  =       -33.128738  see above
  kinetic energy EKIN   =         1.809651
  kin. lattice  EKIN_LAT=         0.000000  (temperature 2000.00 K)
  nose potential ES     =         0.000000
  nose kinetic   EPS    =         0.000000
  ---------------------------------------------------
  total energy   ETOTAL =       -31.319087 eV

  maximum distance moved by ions :      0.93E-02

    WAVPRE:  cpu time      1.6052: real time      0.0406
    FEWALD:  cpu time      0.0656: real time      0.0016
    ORTHCH:  cpu time      0.0648: real time      0.0016
     LOOP+:  cpu time     11.9265: real time      0.2990


--------------------------------------- Ionic step        2  -------------------------------------------




--------------------------------------- Iteration      2(   1)  ---------------------------------------


    POTLOK:  cpu time      0.0775: real time      0.0019
    SETDIJ:  cpu time      0.0473: real time      0.0012
    EDDIAG:  cpu time      0.1331: real time      0.0033
  RMM-DIIS:  cpu time      0.2434: real time      0.0061
    ORTHCH:  cpu time      0.0178: real time      0.0004
       DOS:  cpu time      0.0070: real time      0.0002
    CHARGE:  cpu time      0.0506: real time      0.0013
    MIXING:  cpu time      0.0077: real time      0.0002
    --------------------------------------------
      LOOP:  cpu time      0.5859: real time      0.0146

 eigenvalue-minimisations  :    48
 total energy-change (2. order) : 0.8934941E-01  (-0.2979228E+00)
 number of electron      31.9997685 magnetization 
 augmentation part       -1.6996940 magnetization 

 Broyden mixing:
  rms(total) = 0.82313E-01    rms(broyden)= 0.82279E-01
  rms(prec ) = 0.16190E+00
  weight for this iteration     100.00

 Free energy of the ion-electron system (eV)
  ---------------------------------------------------
  alpha Z        PSCENC =        13.17272099
  Ewald energy   TEWEN  =      -907.37642509
  -Hartree energ DENC   =       -70.63858012
  -exchange      EXHF   =         0.00000000
  -V(xc)+E(xc)   XCENC  =       -70.92537297
  PAW double counting   =      6024.55211578    -5884.90037351
  entropy T*S    EENTRO =        -0.00115927
  eigenvalues    EBANDS =        38.64588398
  atomic energy  EATOM  =       824.43180455
  Solvation  Ediel_sol  =         0.00000000
  ---------------------------------------------------
  free energy    TOTEN  =       -33.03938566 eV

  energy without entropy =      -33.03822639  energy(sigma->0) =      -33.03880602


--------------------------------------------------------------------------------------------------------




--------------------------------------- Iteration      2(   2)  ---------------------------------------


    POTLOK:  cpu time      0.0842: real time      0.0021
    SETDIJ:  cpu time      0.0496: real time      0.0013
    EDDIAG:  cpu time      0.1322: real time      0.0033
  RMM-DIIS:  cpu time      0.2436: real time      0.0061
    ORTHCH:  cpu time      0.0178: real time      0.0004
       DOS:  cpu time      0.0060: real time      0.0001
    CHARGE:  cpu time      0.0496: real time      0.0012
    MIXING:  cpu time      0.0080: real time      0.0002
    --------------------------------------------
      LOOP:  cpu time      0.5911: real time      0.0148

 eigenvalue-minimisations  :    48
 total energy-change (2. order) :-0.5179553E-02  (-0.2092300E-01)
 number of electron      31.9997678 magnetization 
 augmentation part       -1.6996653 magnetization 

 Broyden mixing:
  rms(total) = 0.43154E-01    rms(broyden)= 0.43149E-01
  rms(prec ) = 0.74278E-01
  weight for this iteration     100.00

 eigenvalues of (default mixing * dielectric matrix)
  average eigenvalue GAMMA=   1.0555
  1.0555

 Free energy of the ion-electron system (eV)
  ---------------------------------------------------
  alpha Z        PSCENC =        13.17272099
  Ewald energy   TEWEN  =      -907.37642509
  -Hartree energ DENC   =       -70.53762236
  -exchange      EXHF   =         0.00000000
  -V(xc)+E(xc)   XCENC  =       -70.93860041
  PAW double counting   =      6018.54201374    -5878.88704350
  entropy T*S    EENTRO =        -0.00087946
  eigenvalues    EBANDS =        38.54946633
  atomic energy  EATOM  =       824.43180455
  Solvation  Ediel_sol  =         0.00000000
  ---------------------------------------------------
  free energy    TOTEN  =       -33.04456521 eV

  energy without entropy =      -33.04368575  energy(sigma->0) =      -33.04412548


--------------------------------------------------------------------------------------------------------




--------------------------------------- Iteration      2(   3)  ---------------------------------------


    POTLOK:  cpu time      0.0841: real time      0.0021
    SETDIJ:  cpu time      0.0505: real time      0.0013
    EDDIAG:  cpu time      0.1339: real time      0.0033
  RMM-DIIS:  cpu time      0.2424: real time      0.0061
    ORTHCH:  cpu time      0.0202: real time      0.0005
       DOS:  cpu time      0.0059: real time      0.0001
    CHARGE:  cpu time      0.0501: real time      0.0013
    MIXING:  cpu time      0.0094: real time      0.0003
    --------------------------------------------
      LOOP:  cpu time      0.5963: real time      0.0149

 eigenvalue-minimisations  :    48
 total energy-change (2. order) :-0.4495269E-03  (-0.2742002E-02)
 number of electron      31.9997674 magnetization 
 augmentation part       -1.6994095 magnetization 

 Broyden mixing:
  rms(total) = 0.34575E-01    rms(broyden)= 0.34574E-01
  rms(prec ) = 0.42060E-01
  weight for this iteration     100.00

 eigenvalues of (default mixing * dielectric matrix)
  average eigenvalue GAMMA=   1.7879
  1.7879  1.7879

 Free energy of the ion-electron system (eV)
  ---------------------------------------------------
  alpha Z        PSCENC =        13.17272099
  Ewald energy   TEWEN  =      -907.37642509
  -Hartree energ DENC   =       -70.52969079
  -exchange      EXHF   =         0.00000000
  -V(xc)+E(xc)   XCENC  =       -70.94023692
  PAW double counting   =      6013.07430301    -5873.42082740
  entropy T*S    EENTRO =        -0.00084115
  eigenvalues    EBANDS =        38.54417807
  atomic energy  EATOM  =       824.43180455
  Solvation  Ediel_sol  =         0.00000000
  ---------------------------------------------------
  free energy    TOTEN  =       -33.04501474 eV

  energy without entropy =      -33.04417359  energy(sigma->0) =      -33.04459416


--------------------------------------------------------------------------------------------------------




--------------------------------------- Iteration      2(   4)  ---------------------------------------


    POTLOK:  cpu time      0.0841: real time      0.0021
    SETDIJ:  cpu time      0.0456: real time      0.0011
    EDDIAG:  cpu time      0.1326: real time      0.0033
  RMM-DIIS:  cpu time      0.2431: real time      0.0061
    ORTHCH:  cpu time      0.0191: real time      0.0005
       DOS:  cpu time      0.0061: real time      0.0002
    CHARGE:  cpu time      0.0482: real time      0.0012
    MIXING:  cpu time      0.0112: real time      0.0003
    --------------------------------------------
      LOOP:  cpu time      0.5895: real time      0.0148

 eigenvalue-minimisations  :    48
 total energy-change (2. order) :-0.2108461E-03  (-0.3069281E-03)
 number of electron      31.9997673 magnetization 
 augmentation part       -1.6993374 magnetization 

 Broyden mixing:
  rms(total) = 0.11872E-01    rms(broyden)= 0.11872E-01
  rms(prec ) = 0.13608E-01
  weight for this iteration     100.00

 eigenvalues of (default mixing * dielectric matrix)
  average eigenvalue GAMMA=   1.6192
  2.3351  0.9918  1.5306

 Free energy of the ion-electron system (eV)
  ---------------------------------------------------
  alpha Z        PSCENC =        13.17272099
  Ewald energy   TEWEN  =      -907.37642509
  -Hartree energ DENC   =       -70.54398192
  -exchange      EXHF   =         0.00000000
  -V(xc)+E(xc)   XCENC  =       -70.93854325
  PAW double counting   =      6012.84442608    -5873.19310563
  entropy T*S    EENTRO =        -0.00079395
  eigenvalues    EBANDS =        38.55867262
  atomic energy  EATOM  =       824.43180455
  Solvation  Ediel_sol  =         0.00000000
  ---------------------------------------------------
  free energy    TOTEN  =       -33.04522558 eV

  energy without entropy =      -33.04443164  energy(sigma->0) =      -33.04482861


--------------------------------------------------------------------------------------------------------




--------------------------------------- Iteration      2(   5)  ---------------------------------------


    POTLOK:  cpu time      0.0859: real time      0.0021
    SETDIJ:  cpu time      0.0509: real time      0.0013
    EDDIAG:  cpu time      0.1327: real time      0.0033
  RMM-DIIS:  cpu time      0.2608: real time      0.0065
    ORTHCH:  cpu time      0.0179: real time      0.0004
       DOS:  cpu time      0.0059: real time      0.0001
    CHARGE:  cpu time      0.0510: real time      0.0013
    MIXING:  cpu time      0.0108: real time      0.0003
    --------------------------------------------
      LOOP:  cpu time      0.6168: real time      0.0154

 eigenvalue-minimisations  :    48
 total energy-change (2. order) :-0.1105612E-03  (-0.8512767E-04)
 number of electron      31.9997673 magnetization 
 augmentation part       -1.6992170 magnetization 

 Broyden mixing:
  rms(total) = 0.51875E-02    rms(broyden)= 0.51873E-02
  rms(prec ) = 0.59431E-02
  weight for this iteration     100.00

 eigenvalues of (default mixing * dielectric matrix)
  average eigenvalue GAMMA=   1.6366
  2.7316  1.7729  1.1823  0.8597

 Free energy of the ion-electron system (eV)
  ---------------------------------------------------
  alpha Z        PSCENC =        13.17272099
  Ewald energy   TEWEN  =      -907.37642509
  -Hartree energ DENC   =       -70.55265037
  -exchange      EXHF   =         0.00000000
  -V(xc)+E(xc)   XCENC  =       -70.93717458
  PAW double counting   =      6015.01283389    -5875.36233464
  entropy T*S    EENTRO =        -0.00078920
  eigenvalues    EBANDS =        38.56667831
  atomic energy  EATOM  =       824.43180455
  Solvation  Ediel_sol  =         0.00000000
  ---------------------------------------------------
  free energy    TOTEN  =       -33.04533614 eV

  energy without entropy =      -33.04454695  energy(sigma->0) =      -33.04494154


--------------------------------------------------------------------------------------------------------




--------------------------------------- Iteration      2(   6)  ---------------------------------------


    POTLOK:  cpu time      0.0847: real time      0.0021
    SETDIJ:  cpu time      0.0501: real time      0.0013
    EDDIAG:  cpu time      0.1252: real time      0.0031
  RMM-DIIS:  cpu time      0.1926: real time      0.0048
    ORTHCH:  cpu time      0.0206: real time      0.0005
       DOS:  cpu time      0.0058: real time      0.0001
    --------------------------------------------
      LOOP:  cpu time      0.4778: real time      0.0119

 eigenvalue-minimisations  :    33
 total energy-change (2. order) :-0.2452541E-04  (-0.1598710E-04)
 number of electron      31.9997673 magnetization 
 augmentation part       -1.6992170 magnetization 

 Free energy of the ion-electron system (eV)
  ---------------------------------------------------
  alpha Z        PSCENC =        13.17272099
  Ewald energy   TEWEN  =      -907.37642509
  -Hartree energ DENC   =       -70.55545352
  -exchange      EXHF   =         0.00000000
  -V(xc)+E(xc)   XCENC  =       -70.93659794
  PAW double counting   =      6017.36548238    -5877.71523471
  entropy T*S    EENTRO =        -0.00077914
  eigenvalues    EBANDS =        38.56912182
  atomic energy  EATOM  =       824.43180455
  Solvation  Ediel_sol  =         0.00000000
  ---------------------------------------------------
  free energy    TOTEN  =       -33.04536067 eV

  energy without entropy =      -33.04458152  energy(sigma->0) =      -33.04497110


--------------------------------------------------------------------------------------------------------




 average (electrostatic) potential at core
  the test charge radii are     0.9892
  (the norm of the test charge is              1.0001)
       1 -82.9893       2 -82.9739       3 -83.0052       4 -82.9869       5 -82.9604
       6 -82.9868       7 -82.9596       8 -82.9672
 
 
 
 E-fermi :   6.3076     XC(G=0):  -9.1087     alpha+bet :-11.7317

 val. band max:        6.0843554959   @ k =   0.0000   0.0000   0.0000
 cond. band min:       6.5322371212   @ k =   0.0000   0.0000   0.0000
 fundamental gap:      0.4478816253
 Fermi energy:         6.3076344187

 k-point     1 :       0.0000    0.0000    0.0000
  band No.  band energies     occupation 
      1      -5.9435      2.00000
      2      -2.0300      2.00000
      3      -1.9670      2.00000
      4      -1.8958      2.00000
      5      -1.8127      2.00000
      6      -1.7416      2.00000
      7      -1.6397      2.00000
      8       3.0076      2.00000
      9       3.0218      2.00000
     10       3.0443      2.00000
     11       3.0881      2.00000
     12       3.1147      2.00000
     13       3.1571      2.00000
     14       5.8589      2.00000
     15       5.9376      2.00000
     16       6.0844      1.99841
     17       6.5322      0.00149
     18       6.5862      0.00008
     19       6.6125      0.00002
     20       6.6531      0.00000
     21       6.6716      0.00000
     22       6.7458      0.00000
     23       8.3996      0.00000
     24       8.4759      0.00000


--------------------------------------------------------------------------------------------------------


 soft charge-density along one line, spin component           1
         0         1         2         3         4         5         6         7         8         9
 total charge-density along one line
 
 pseudopotential strength for first ion, spin component:           1
 18.396  25.666  -0.001  -0.001   0.001  -0.002  -0.002   0.002
 25.666  35.812  -0.002  -0.001   0.002  -0.003  -0.003   0.003
 -0.001  -0.002   4.179  -0.000  -0.000   7.786  -0.000  -0.000
 -0.001  -0.001  -0.000   4.179  -0.000  -0.000   7.786  -0.000
  0.001   0.002  -0.000  -0.000   4.179  -0.000  -0.000   7.788
 -0.002  -0.003   7.786  -0.000  -0.000  14.519  -0.000  -0.001
 -0.002  -0.003  -0.000   7.786  -0.000  -0.000  14.519  -0.000
  0.002   0.003  -0.000  -0.000   7.788  -0.001  -0.000  14.521
 total augmentation occupancy for first ion, spin component:           1
  7.497  -3.155   0.092   0.176   0.019  -0.032  -0.061  -0.003
 -3.155   1.350  -0.043  -0.089  -0.011   0.015   0.030   0.002
  0.092  -0.043   4.421  -0.065  -0.075  -1.190   0.024   0.024
  0.176  -0.089  -0.065   4.434  -0.043   0.024  -1.195   0.014
  0.019  -0.011  -0.075  -0.043   4.299   0.023   0.012  -1.157
 -0.032   0.015  -1.190   0.024   0.023   0.331  -0.008  -0.008
 -0.061   0.030   0.024  -1.195   0.012  -0.008   0.332  -0.005
 -0.003   0.002   0.024   0.014  -1.157  -0.008  -0.005   0.321


------------------------ aborting loop because EDIFF is reached ----------------------------------------


    CHARGE:  cpu time      0.0500: real time      0.0012
    FORLOC:  cpu time      0.0003: real time      0.0001
    FORNL :  cpu time      0.1574: real time      0.0041
    STRESS:  cpu time      0.5021: real time      0.0126
    FORCOR:  cpu time      0.0593: real time      0.0014
    FORHAR:  cpu time      0.0209: real time      0.0006
    MIXING:  cpu time      0.0119: real time      0.0003
    OFIELD:  cpu time      0.0015: real time      0.0000

  FORCE on cell =-STRESS in cart. coord.  units (eV):
  Direction    XX          YY          ZZ          XY          YZ          ZX
  --------------------------------------------------------------------------------------
  Alpha Z    13.17272    13.17272    13.17272
  Ewald    -302.28116  -302.51261  -302.58421     2.33242    -6.53129     1.76402
  Hartree    23.56618    23.50748    23.48242     0.25391    -0.79912     0.15163
  E(xc)    -102.83868  -102.84243  -102.83965    -0.01940     0.05122    -0.01599
  Local    -125.19162  -124.99755  -124.82912    -2.48392     7.01689    -1.77059
  n-local   305.60192   305.64304   305.59510     0.48668    -1.32508     0.39139
  augment   -43.16027   -43.17537   -43.16538    -0.02161     0.06636    -0.01439
  Kinetic   239.92465   240.06823   240.05354    -0.28563     0.68818    -0.26118
  Fock        0.00000     0.00000     0.00000     0.00000     0.00000     0.00000
  -------------------------------------------------------------------------------------
  Total       8.79374     8.86352     8.88542     0.26246    -0.83284     0.24488
  in kB      86.14408    86.82764    87.04211     2.57109    -8.15858     2.39890
  external pressure =       86.67 kB  Pullay stress =        0.00 kB

  kinetic pressure (ideal gas correction) =     11.82 kB
  total pressure  =     98.49 kB
  Total+kin.    99.421      96.566      99.482      -5.043      -2.545      -0.922

 VOLUME and BASIS-vectors are now :
 -----------------------------------------------------------------------------
  energy-cutoff  :      184.01
  volume of cell :      163.55
      direct lattice vectors                 reciprocal lattice vectors
     5.468728065  0.000000000  0.000000000     0.182857876  0.000000000  0.000000000
     0.000000000  5.468728065  0.000000000     0.000000000  0.182857876  0.000000000
     0.000000000  0.000000000  5.468728065     0.000000000  0.000000000  0.182857876

  length of vectors
     5.468728065  5.468728065  5.468728065     0.182857876  0.182857876  0.182857876


 FORCES acting on ions
[...]
   -.183E+02 -.337E+01 0.145E+02   0.166E+02 0.920E+00 -.159E+02   0.226E+01 0.707E+00 -.451E+00   0.742E-03 0.285E-02 -.418E-02
 -----------------------------------------------------------------------------------------------
   -.320E+01 0.582E+00 0.125E+00   0.355E-14 0.111E-15 -.178E-14   0.315E+01 -.612E+00 -.794E-01   -.889E-02 0.827E-02 -.600E-02
 
 
 POSITION                                       TOTAL-FORCE (eV/Angst)
 -----------------------------------------------------------------------------------
      2.01526      3.30293      1.26036        -0.895193      0.173644     -0.313708
      0.48130      5.23545      2.14906         1.148307      0.626090      0.761971
      1.21360      1.15775      4.08118         0.528784     -0.212927     -1.019037
      0.15843      2.48378      0.02743         1.200039      0.421099      0.162263
      4.48219      3.60355      3.41138        -0.253607      0.100464      0.084707
      2.48722      0.21715      0.26348        -1.741062      0.452362      1.632979
      3.79664      1.94578      1.09400        -0.675052      0.161466      0.594763
      1.77154      3.92853      4.11929         0.634588     -1.743944     -1.864244
 -----------------------------------------------------------------------------------
    total drift:                               -0.053195     -0.021745      0.039693


--------------------------------------------------------------------------------------------------------



  FREE ENERGIE OF THE ION-ELECTRON SYSTEM (eV)
  ---------------------------------------------------
  free  energy   TOTEN  =       -39.97467432 eV

  energy  without entropy=      -39.97467432  energy(sigma->0) =      -39.97467432
 d Force = 0.1248390E+00[ 0.737E-01, 0.176E+00]  d Energy = 0.1269255E+00-0.209E-02
 d Force = 0.5522033E+00[ 0.219E+00, 0.885E+00]  d Ewald  = 0.5556415E+00-0.344E-02
 


--------------------------------------------------------------------------------------------------------


    POTLOK:  cpu time      0.1389: real time      0.0035


--------------------------------------------------------------------------------------------------------


           RANDOM_SEED =         139596256               48                0
   IONSTEP:  cpu time      0.0042: real time      0.0001

  ENERGY OF THE ELECTRON-ION-THERMOSTAT SYSTEM (eV)
  ---------------------------------------------------
% ion-electron   TOTEN  =       -39.974674  see above
  kinetic energy EKIN   =         1.156116
  kin. lattice  EKIN_LAT=         0.000000  (temperature 1277.72 K)
  nose potential ES     =         4.991606
  nose kinetic   EPS    =         2.536476
  ---------------------------------------------------
  total energy   ETOTAL =       -31.290477 eV

  maximum distance moved by ions :      0.80E-02

 Prediction of Wavefunctions ALPHA= 1.870 BETA=-0.904
    WAVPRE:  cpu time      0.2168: real time      0.0055
    FEWALD:  cpu time      0.0660: real time      0.0017
    ORTHCH:  cpu time      0.0674: real time      0.0017
     LOOP+:  cpu time      3.2726: real time      0.0820


--------------------------------------- Ionic step       30  -------------------------------------------




--------------------------------------- Iteration     30(   1)  ---------------------------------------


    POTLOK:  cpu time      0.0754: real time      0.0019
    SETDIJ:  cpu time      0.0490: real time      0.0012
    EDDIAG:  cpu time      0.1312: real time      0.0033
  RMM-DIIS:  cpu time      0.2687: real time      0.0067
    ORTHCH:  cpu time      0.0190: real time      0.0005
       DOS:  cpu time      0.0040: real time      0.0001
    CHARGE:  cpu time      0.0392: real time      0.0010
    MIXING:  cpu time      0.0073: real time      0.0002
    --------------------------------------------
      LOOP:  cpu time      0.5955: real time      0.0149

 eigenvalue-minimisations  :    49
 total energy-change (2. order) :-0.7125313E-01  (-0.2402434E-02)
 number of electron      31.9999629 magnetization 
 augmentation part       -1.9574332 magnetization 

 Broyden mixing:
  rms(total) = 0.43104E-02    rms(broyden)= 0.43001E-02
  rms(prec ) = 0.62128E-02
  weight for this iteration     100.00

 Free energy of the ion-electron system (eV)
  ---------------------------------------------------
  alpha Z        PSCENC =        13.17272099
  Ewald energy   TEWEN  =      -888.94705792
  -Hartree energ DENC   =       -78.66300539
  -exchange      EXHF   =         0.00000000
  -V(xc)+E(xc)   XCENC  =       -73.02354677
  PAW double counting   =      4070.73576395    -3930.53639200
  entropy T*S    EENTRO =        -0.00000000
  eigenvalues    EBANDS =        22.78383147
  atomic energy  EATOM  =       824.43180455
  Solvation  Ediel_sol  =         0.00000000
  ---------------------------------------------------
  free energy    TOTEN  =       -40.04588113 eV

  energy without entropy =      -40.04588113  energy(sigma->0) =      -40.04588113


--------------------------------------------------------------------------------------------------------




--------------------------------------- Iteration     30(   2)  ---------------------------------------


    POTLOK:  cpu time      0.0859: real time      0.0021
    SETDIJ:  cpu time      0.0470: real time      0.0012
    EDDIAG:  cpu time      0.1285: real time      0.0032
  RMM-DIIS:  cpu time      0.2659: real time      0.0066
    ORTHCH:  cpu time      0.0184: real time      0.0005
       DOS:  cpu time      0.0040: real time      0.0001
    CHARGE:  cpu time      0.0395: real time      0.0010
    MIXING:  cpu time      0.0081: real time      0.0002
    --------------------------------------------
      LOOP:  cpu time      0.5975: real time      0.0149

 eigenvalue-minimisations  :    50
 total energy-change (2. order) :-0.4497109E-03  (-0.4501701E-03)
 number of electron      31.9999629 magnetization 
 augmentation part       -1.9573924 magnetization 

 Broyden mixing:
  rms(total) = 0.33073E-02    rms(broyden)= 0.33065E-02
  rms(prec ) = 0.44089E-02
  weight for this iteration     100.00

 eigenvalues of (default mixing * dielectric matrix)
  average eigenvalue GAMMA=   0.7368
  0.7368

 Free energy of the ion-electron system (eV)
  ---------------------------------------------------
  alpha Z        PSCENC =        13.17272099
  Ewald energy   TEWEN  =      -888.94705792
  -Hartree energ DENC   =       -78.66268440
  -exchange      EXHF   =         0.00000000
  -V(xc)+E(xc)   XCENC  =       -73.02382456
  PAW double counting   =      4069.80115232    -3929.60201707
  entropy T*S    EENTRO =        -0.00000000
  eigenvalues    EBANDS =        22.78357524
  atomic energy  EATOM  =       824.43180455
  Solvation  Ediel_sol  =         0.00000000
  ---------------------------------------------------
  free energy    TOTEN  =       -40.04633084 eV

  energy without entropy =      -40.04633084  energy(sigma->0) =      -40.04633084


--------------------------------------------------------------------------------------------------------




--------------------------------------- Iteration     30(   3)  ---------------------------------------


    POTLOK:  cpu time      0.0849: real time      0.0021
    SETDIJ:  cpu time      0.0505: real time      0.0013
    EDDIAG:  cpu time      0.1284: real time      0.0032
  RMM-DIIS:  cpu time      0.2321: real time      0.0058
    ORTHCH:  cpu time      0.0190: real time      0.0005
       DOS:  cpu time      0.0040: real time      0.0001
    --------------------------------------------
      LOOP:  cpu time      0.5175: real time      0.0129

 eigenvalue-minimisations  :    42
 total energy-change (2. order) :-0.8112358E-04  (-0.8320807E-04)
 number of electron      31.9999629 magnetization 
 augmentation part       -1.9573924 magnetization 

 Free energy of the ion-electron system (eV)
  ---------------------------------------------------
  alpha Z        PSCENC =        13.17272099
  Ewald energy   TEWEN  =      -888.94705792
  -Hartree energ DENC   =       -78.66051609
  -exchange      EXHF   =         0.00000000
  -V(xc)+E(xc)   XCENC  =       -73.02403627
  PAW double counting   =      4069.28372764    -3929.08468479
  entropy T*S    EENTRO =        -0.00000000
  eigenvalues    EBANDS =        22.78162992
  atomic energy  EATOM  =       824.43180455
  Solvation  Ediel_sol  =         0.00000000
  ---------------------------------------------------
  free energy    TOTEN  =       -40.04641196 eV

  energy without entropy =      -40.04641196  energy(sigma->0) =      -40.04641196


--------------------------------------------------------------------------------------------------------




 average (electrostatic) potential at core
  the test charge radii are     0.9892
  (the norm of the test charge is              1.0000)
       1 -83.8566       2 -83.8857       3 -83.3375       4 -83.9797       5 -84.2747
       6 -83.8857       7 -83.6120       8 -83.3861
 
 
 
 E-fermi :   5.1990     XC(G=0):  -9.3758     alpha+bet :-11.7317

 val. band max:        4.7408081788   @ k =   0.0000   0.0000   0.0000
 cond. band min:       5.8679844139   @ k =   0.0000   0.0000   0.0000
 fundamental gap:      1.1271762351
 Fermi energy:         5.1990183592

 k-point     1 :       0.0000    0.0000    0.0000
  band No.  band energies     occupation 
      1      -6.6130      2.00000
      2      -3.2231      2.00000
      3      -2.6805      2.00000
      4      -2.4580      2.00000
      5      -1.7004      2.00000
      6      -0.9564      2.00000
      7      -0.1015      2.00000
      8       1.3252      2.00000
      9       2.0332      2.00000
     10       2.5263      2.00000
     11       2.8751      2.00000
     12       3.2629      2.00000
     13       3.8231      2.00000
     14       4.0699      2.00000
     15       4.4674      2.00000
     16       4.7408      2.00000
     17       5.8680      0.00000
     18       6.2383      0.00000
     19       6.4814      0.00000
     20       7.4663      0.00000
     21       8.0160      0.00000
     22       8.3829      0.00000
     23       9.0780      0.00000
     24       9.2630      0.00000


--------------------------------------------------------------------------------------------------------


 soft charge-density along one line, spin component           1
         0         1         2         3         4         5         6         7         8         9
 total charge-density along one line
 
 pseudopotential strength for first ion, spin component:           1
 18.466  25.763   0.005   0.008   0.002   0.010   0.015   0.004
 25.763  35.950   0.007   0.011   0.003   0.013   0.020   0.006
  0.005   0.007   4.181  -0.002  -0.003   7.791  -0.004  -0.005
  0.008   0.011  -0.002   4.181   0.002  -0.004   7.792   0.003
  0.002   0.003  -0.003   0.002   4.179  -0.005   0.003   7.788
  0.010   0.013   7.791  -0.004  -0.005  14.530  -0.008  -0.009
  0.015   0.020  -0.004   7.792   0.003  -0.008  14.533   0.005
  0.004   0.006  -0.005   0.003   7.788  -0.009   0.005  14.524
 total augmentation occupancy for first ion, spin component:           1
  6.194  -2.486  -0.482  -0.591   0.433   0.165   0.224  -0.130
 -2.486   1.255   0.232   0.356  -0.217  -0.071  -0.116   0.059
 -0.482   0.232   3.500   0.448  -0.303  -0.974  -0.115   0.134
 -0.591   0.356   0.448   2.884  -0.004  -0.110  -0.778  -0.038
  0.433  -0.217  -0.303  -0.004   4.117   0.139  -0.040  -1.123
  0.165  -0.071  -0.974  -0.110   0.139   0.277   0.029  -0.054
  0.224  -0.116  -0.115  -0.778  -0.040   0.029   0.215   0.021
 -0.130   0.059   0.134  -0.038  -1.123  -0.054   0.021   0.315


------------------------ aborting loop because EDIFF is reached ----------------------------------------


    CHARGE:  cpu time      0.0396: real time      0.0010
    FORLOC:  cpu time      0.0004: real time      0.0001
    FORNL :  cpu time      0.1597: real time      0.0042
    STRESS:  cpu time      0.5084: real time      0.0127
    FORCOR:  cpu time      0.0602: real time      0.0015
    FORHAR:  cpu time      0.0201: real time      0.0006
    MIXING:  cpu time      0.0092: real time      0.0003
    OFIELD:  cpu time      0.0015: real time      0.0000

  FORCE on cell =-STRESS in cart. coord.  units (eV):
  Direction    XX          YY          ZZ          XY          YZ          ZX
  --------------------------------------------------------------------------------------
  Alpha Z    13.17272    13.17272    13.17272
  Ewald    -315.03591  -284.20872  -289.70352    -3.99969    18.03872    15.09512
  Hartree     9.69492    34.40082    34.56222    -1.56461     1.92433     6.30537
  E(xc)    -100.15324   -99.68968   -99.67172     0.05145    -0.09561     0.11649
  Local     -97.22673  -145.58330  -142.26389     4.59749   -18.74709   -19.98903
  n-local   322.31659   313.88095   313.30859    -0.17796     2.97432    -0.88797
  augment   -50.33916   -49.49027   -49.52867     0.17859    -0.19870     0.43793
  Kinetic   216.00574   218.05537   219.74963    -8.03738    -0.50130    -6.81624
  Fock        0.00000     0.00000     0.00000     0.00000     0.00000     0.00000
  -------------------------------------------------------------------------------------
  Total      -1.56507     0.53788    -0.37464    -8.95212     3.39468    -5.73833
  in kB     -15.33148     5.26914    -3.66998   -87.69552    33.25446   -56.21302
  external pressure =       -4.58 kB  Pullay stress =        0.00 kB

  kinetic pressure (ideal gas correction) =      7.01 kB
  total pressure  =      2.44 kB
  Total+kin.    -6.559      11.994       1.877     -91.789      33.789     -58.976

 VOLUME and BASIS-vectors are now :
 -----------------------------------------------------------------------------
  energy-cutoff  :      184.01
  volume of cell :      163.55
      direct lattice vectors                 reciprocal lattice vectors
     5.468728065  0.000000000  0.000000000     0.182857876  0.000000000  0.000000000
     0.000000000  5.468728065  0.000000000     0.000000000  0.182857876  0.000000000
     0.000000000  0.000000000  5.468728065     0.000000000  0.000000000  0.182857876

  length of vectors
     5.468728065  5.468728065  5.468728065     0.182857876  0.182857876  0.182857876


 FORCES acting on ions
    electron-ion (+dipol)            ewald-force                    non-local-force                 convergence-correction
 -----------------------------------------------------------------------------------------------
   -.368E+01 -.929E+01 -.228E+02   0.445E+01 0.639E+01 0.202E+02   -.252E+01 0.381E+01 0.228E+01   0.933E-02 -.286E-02 0.170E-02
   0.252E+02 -.133E+02 0.703E+01   -.245E+02 0.145E+02 -.905E+01   0.403E+00 -.566E+00 0.276E+01   -.585E-03 0.403E-02 0.276E-02
   0.141E+01 0.597E+01 0.300E+02   -.355E+00 -.367E+01 -.282E+02   -.488E+00 -.238E+01 -.259E+01   -.224E-02 -.244E-02 -.261E-02
   0.212E+02 -.805E+01 -.179E+01   -.218E+02 0.166E+01 0.496E+01   0.193E+01 0.672E+01 -.311E+01   -.350E-02 -.753E-03 0.433E-03
   0.138E+02 -.412E+01 0.396E+01   -.152E+02 0.468E+01 -.585E+00   0.121E+01 -.369E+00 -.319E+01   -.208E-02 0.180E-03 -.256E-02
   -.281E+02 0.113E+02 -.672E+01   0.278E+02 -.776E+01 0.687E+01   -.146E+01 -.322E+01 0.142E+01   -.384E-02 -.813E-03 0.236E-02
   -.161E+02 0.219E+02 -.216E+02   0.144E+02 -.168E+02 0.195E+02   0.212E+01 -.554E+01 0.246E+01   -.421E-03 0.761E-02 0.592E-02
   -.172E+02 -.370E+01 0.125E+02   0.154E+02 0.107E+01 -.136E+02   0.231E+01 0.787E+00 -.431E+00   0.109E-03 0.188E-02 -.115E-02
 -----------------------------------------------------------------------------------------------
   -.354E+01 0.712E+00 0.455E+00   0.178E-14 0.888E-14 0.000E+00   0.350E+01 -.760E+00 -.407E+00   -.323E-02 0.683E-02 0.686E-02
 
 
 POSITION                                       TOTAL-FORCE (eV/Angst)
 -----------------------------------------------------------------------------------
      2.03767      3.27594      1.26939        -1.744599      0.907542     -0.347152
      0.50712      5.23952      2.13678         1.055495      0.621111      0.747660
      1.21902      1.15783      4.07329         0.561766     -0.080201     -0.884264
      0.15184      2.46841      0.04043         1.267124      0.323937      0.055953
      4.47042      3.59270      3.39348        -0.215037      0.187100      0.186733
      2.47305      0.23112      0.28760        -1.851640      0.305192      1.568312
      3.76411      1.97364      1.10323         0.345725     -0.469403      0.327818
      1.78295      3.93576      4.10197         0.532641     -1.836108     -1.600738
 -----------------------------------------------------------------------------------
    total drift:                               -0.048525     -0.040830      0.054321


--------------------------------------------------------------------------------------------------------



  FREE ENERGIE OF THE ION-ELECTRON SYSTEM (eV)
  ---------------------------------------------------
  free  energy   TOTEN  =       -40.04641196 eV

  energy  without entropy=      -40.04641196  energy(sigma->0) =      -40.04641196
 d Force = 0.6974528E-01[ 0.160E-01, 0.123E+00]  d Energy = 0.7173764E-01-0.199E-02
 d Force =-0.1795362E+00[-0.483E+00, 0.124E+00]  d Ewald  =-0.1765103E+00-0.303E-02
 


--------------------------------------------------------------------------------------------------------


    POTLOK:  cpu time      0.1390: real time      0.0035


--------------------------------------------------------------------------------------------------------


           RANDOM_SEED =         139596256               48                0
   IONSTEP:  cpu time      0.0046: real time      0.0001

  ENERGY OF THE ELECTRON-ION-THERMOSTAT SYSTEM (eV)
  ---------------------------------------------------
% ion-electron   TOTEN  =       -40.046412  see above
  kinetic energy EKIN   =         0.973160
  kin. lattice  EKIN_LAT=         0.000000  (temperature 1075.52 K)
  nose potential ES     =         5.423135
  nose kinetic   EPS    =         2.361074
  ---------------------------------------------------
  total energy   ETOTAL =       -31.289043 eV

  maximum distance moved by ions :      0.69E-02


 mean value of Nose-termostat <S>:     0.357 mean value of <T> :  2712.010
 mean temperature <T/S>/<1/S>  :  1999.998

 Prediction of Wavefunctions ALPHA= 1.916 BETA=-0.954
    WAVPRE:  cpu time      0.5401: real time      0.0137
    FEWALD:  cpu time      0.0654: real time      0.0016
    ORTHCH:  cpu time      0.0662: real time      0.0016
    POTLOK:  cpu time      0.1241: real time      0.0031
    EDDIAG:  cpu time      0.1314: real time      0.0033
 writing wavefunctions
     LOOP+:  cpu time      4.5958: real time      0.1156
    4ORBIT:  cpu time      0.0006: real time      0.0000

 total amount of memory used by VASP MPI-rank0    31951. kBytes
=======================================================================

   base                                    :      30000. kBytes
   nonlr-proj                              :       1062. kBytes
   fftplans                                :        167. kBytes
   grid                                    :        413. kBytes
   one-center                              :         24. kBytes
   wavefun                                 :        285. kBytes
 
  
  
 General timing and accounting informations for this job:
 ========================================================
  
                  Total CPU time used (sec):      136.624
                            User time (sec):      129.483
                          System time (sec):        7.142
                         Elapsed time (sec):        4.162
  
                   Maximum memory used (kb):      169748.
                   Average memory used (kb):          N/A
  
                          Minor page faults:        31601
                          Major page faults:            3
                 Voluntary context switches:         1729
