<?xml version="1.0" encoding="ISO-8859-1"?>
<modeling>
 <generator>
  <i name="program" type="string">vasp </i>
  <i name="version" type="string">6.5.0  </i>
  <i name="subversion" type="string">16Dec24 (build Mar 16 2025 21:55:21) complex                          parallel </i>
  <i name="platform" type="string">LinuxIFC </i>
  <i name="date" type="string">2025 11 04 </i>
  <i name="time" type="string">09:58:36 </i>
 </generator>
 <incar>
  <i type="string" name="SYSTEM">cd Si</i>
  <i type="string" name="PREC">Low</i>
  <i type="string" name="ALGO">VeryFast</i>
  <i type="int" name="IBRION">     0</i>
  <i type="int" name="NSW">    30</i>
  <i type="int" name="ISIF">     2</i>
  <i type="int" name="ISYM">     0</i>
  <i name="POTIM">      3.00000000</i>
  <i name="TEBEG">   2000.00000000</i>
  <i name="TEEND">   2000.00000000</i>
  <i name="SMASS">      1.00000000</i>
  <i type="string" name="LREAL">Auto</i>
  <i type="int" name="ISMEAR">     0</i>
  <i name="SIGMA">      0.10000000</i>
  <i type="int" name="MDALGO">     2</i>
 </incar>
 <primitive_cell>
  <structure name="primitive_cell" >
   <crystal>
    <varray name="basis" >
     <v>       5.46872807       0.00000000       0.00000000 </v>
     <v>       0.00000000       5.46872807       0.00000000 </v>
     <v>       0.00000000       0.00000000       5.46872807 </v>
    </varray>
    <i name="volume">    163.55317727 </i>
    <varray name="rec_basis" >
     <v>       0.18285788       0.00000000       0.00000000 </v>
     <v>       0.00000000       0.18285788       0.00000000 </v>
     <v>       0.00000000       0.00000000       0.18285788 </v>
    </varray>
   </crystal>
   <varray name="positions" >
    <v>       0.25000000       0.75000000       0.25000000 </v>
    <v>       0.00000000       0.00000000       0.50000000 </v>
    <v>       0.25000000       0.25000000       0.75000000 </v>
    <v>       0.00000000       0.50000000       0.00000000 </v>
    <v>       0.75000000       0.75000000       0.75000000 </v>
    <v>       0.50000000       0.00000000       0.00000000 </v>
    <v>       0.75000000       0.25000000       0.25000000 </v>
    <v>       0.50000000       0.50000000       0.50000000 </v>
   </varray>
  </structure>
  <varray name="primitive_index" >
   <v type="int" >        1 </v>
   <v type="int" >        2 </v>
   <v type="int" >        3 </v>
   <v type="int" >        4 </v>
   <v type="int" >        5 </v>
   <v type="int" >        6 </v>
   <v type="int" >        7 </v>
   <v type="int" >        8 </v>
  </varray>
 </primitive_cell>
 <kpoints>
  <generation param="Monkhorst-Pack">
   <v type="int" name="divisions">       1        1        1 </v>
   <v name="usershift">      0.00000000       0.00000000       0.00000000 </v>
   <v name="genvec1">      1.00000000       0.00000000       0.00000000 </v>
   <v name="genvec2">      0.00000000       1.00000000       0.00000000 </v>
   <v name="genvec3">      0.00000000       0.00000000       1.00000000 </v>
   <v name="shift">      0.00000000       0.00000000       0.00000000 </v>
  </generation>
  <varray name="kpointlist" >
   <v>       0.00000000       0.00000000       0.00000000 </v>
  </varray>
  <varray name="weights" >
   <v>       1.00000000 </v>
  </varray>
 </kpoints>
 <parameters>
  <separator name="general" >
   <i type="string" name="SYSTEM">cd Si</i>
   <i type="logical" name="LCOMPAT"> F  </i>
  </separator>
  <separator name="electronic" >
   <i type="string" name="PREC">low</i>
   <i name="ENMAX">    184.00900000</i>
   <i name="ENAUG">    322.06900000</i>
   <i name="EDIFF">      0.00010000</i>
   <i type="int" name="IALGO">    48</i>
   <i type="int" name="IWAVPR">    12</i>
   <i type="int" name="NBANDS">    24</i>
   <i type="int" name="NBANDSLOW">    -1</i>
   <i type="int" name="NBANDSHIGH">    -1</i>
   <i name="NELECT">     32.00000000</i>
   <i type="int" name="TURBO">     0</i>
   <i type="int" name="IRESTART">     0</i>
   <i type="int" name="NREBOOT">     0</i>
   <i type="int" name="NMIN">     0</i>
   <i name="EREF">      0.00000000</i>
   <separator name="electronic smearing" >
    <i type="int" name="ISMEAR">     0</i>
    <i name="SIGMA">      0.10000000</i>
    <i name="KSPACING">      0.50000000</i>
    <i type="logical" name="KGAMMA"> T  </i>
    <i type="logical" name="KBLOWUP"> T  </i>
   </separator>
   <separator name="electronic projectors" >
    <i type="logical" name="LREAL"> T  </i>
    <v name="ROPT">     -0.01000000</v>
    <i type="int" name="LMAXPAW">  -100</i>
    <i type="int" name="LMAXMIX">     2</i>
    <i type="logical" name="NLSPLINE"> F  </i>
   </separator>
   <separator name="electronic startup" >
    <i type="int" name="ISTART">     0</i>
    <i type="int" name="ICHARG">     2</i>
    <i type="int" name="INIWAV">     1</i>
   </separator>
   <separator name="electronic spin" >
    <i type="int" name="ISPIN">     1</i>
    <i type="logical" name="LNONCOLLINEAR"> F  </i>
    <v name="MAGMOM">      1.00000000      1.00000000      1.00000000      1.00000000      1.00000000      1.00000000      1.00000000      1.00000000</v>
    <i name="NUPDOWN">     -1.00000000</i>
    <i type="logical" name="LSORBIT"> F  </i>
    <v name="SAXIS">      0.00000000      0.00000000      1.00000000</v>
    <i type="logical" name="LSPIRAL"> F  </i>
    <v name="QSPIRAL">      0.00000000      0.00000000      0.00000000</v>
    <i type="logical" name="LZEROZ"> F  </i>
   </separator>
   <separator name="electronic exchange-correlation" >
    <i type="logical" name="LASPH"> F  </i>
   </separator>
   <separator name="electronic convergence" >
    <i type="int" name="NELM">    60</i>
    <i type="int" name="NELMDL">   -12</i>
    <i type="int" name="NELMIN">     2</i>
    <i name="ENINI">    184.00900000</i>
    <separator name="electronic convergence detail" >
     <i type="logical" name="LDIAG"> T  </i>
     <i type="logical" name="LSUBROT"> F  </i>
     <i name="WEIMIN">      0.00100000</i>
     <i name="EBREAK">      0.00000104</i>
     <i name="DEPER">      0.30000000</i>
     <i type="int" name="NRMM">     4</i>
     <i name="TIME">      0.40000000</i>
    </separator>
   </separator>
   <separator name="electronic mixer" >
    <i name="AMIX">      0.40000000</i>
    <i name="BMIX">      1.00000000</i>
    <i name="AMIN">      0.10000000</i>
    <i name="AMIX_MAG">      1.60000000</i>
    <i name="BMIX_MAG">      1.00000000</i>
    <separator name="electronic mixer details" >
     <i type="int" name="IMIX">     4</i>
     <i type="logical" name="MIXFIRST"> F  </i>
     <i type="int" name="MAXMIX">   -45</i>
     <i name="WC">    100.00000000</i>
     <i type="int" name="INIMIX">     1</i>
     <i type="int" name="MIXPRE">     1</i>
     <i type="int" name="MREMOVE">     5</i>
    </separator>
   </separator>
   <separator name="electronic dipolcorrection" >
    <i type="logical" name="LDIPOL"> F  </i>
    <i type="logical" name="LMONO"> F  </i>
    <i type="int" name="IDIPOL">     0</i>
    <i name="EPSILON">      1.00000000</i>
    <v name="DIPOL">   -100.00000000   -100.00000000   -100.00000000</v>
    <i name="EFIELD">      0.00000000</i>
    <i type="logical" name="LVACPOTAV"> F  </i>
   </separator>
  </separator>
  <separator name="grids" >
   <i type="int" name="NGX">    18</i>
   <i type="int" name="NGY">    18</i>
   <i type="int" name="NGZ">    18</i>
   <i type="int" name="NGXF">    24</i>
   <i type="int" name="NGYF">    24</i>
   <i type="int" name="NGZF">    24</i>
   <i type="logical" name="ADDGRID"> F  </i>
  </separator>
  <separator name="ionic" >
   <i type="int" name="NSW">    30</i>
   <i type="int" name="IBRION">     0</i>
   <i type="int" name="MDALGO">     2</i>
   <i type="int" name="ISIF">     2</i>
   <i name="PSTRESS">      0.00000000</i>
   <i name="EDIFFG">      0.00100000</i>
   <i type="int" name="NFREE">     0</i>
   <i name="POTIM">      3.00000000</i>
   <i name="SMASS">      1.00000000</i>
   <i name="SCALEE">      1.00000000</i>
  </separator>
  <separator name="ionic md" >
   <i name="TEBEG">   2000.00000000</i>
   <i name="TEEND">   2000.00000000</i>
   <i type="int" name="NBLOCK">     1</i>
   <i type="int" name="KBLOCK">    30</i>
   <i type="int" name="NPACO">   256</i>
   <i name="APACO">     10.00000000</i>
  </separator>
  <separator name="symmetry" >
   <i type="int" name="ISYM">     0</i>
   <i name="SYMPREC">      0.00001000</i>
  </separator>
  <separator name="dos" >
   <i type="int" name="LORBIT">     0</i>
   <v name="RWIGS">     -1.00000000</v>
   <i type="int" name="NEDOS">   301</i>
   <i name="EMIN">     10.00000000</i>
   <i name="EMAX">    -10.00000000</i>
   <i name="EFERMI">      0.00000000</i>
  </separator>
  <separator name="writing" >
   <i type="int" name="NWRITE">     2</i>
   <i type="logical" name="LWAVE"> T  </i>
   <i type="logical" name="LDOWNSAMPLE"> F  </i>
   <i type="logical" name="LCHARG"> T  </i>
   <i type="logical" name="LPARD"> F  </i>
   <i type="logical" name="LVTOT"> F  </i>
   <i type="logical" name="LVHAR"> F  </i>
   <i type="logical" name="LELF"> F  </i>
   <i type="logical" name="LOPTICS"> F  </i>
   <v name="STM">      0.00000000      0.00000000      0.00000000      0.00000000      0.00000000      0.00000000      0.00000000</v>
  </separator>
  <separator name="performance" >
   <i type="int" name="NPAR">     4</i>
   <i type="int" name="NSIM">     4</i>
   <i type="int" name="NBLK">    -1</i>
   <i type="logical" name="LPLANE"> T  </i>
   <i type="logical" name="LSCALAPACK"> T  </i>
   <i type="logical" name="LSCAAWARE"> F  </i>
   <i type="logical" name="LSCALU"> F  </i>
   <i type="logical" name="LASYNC"> F  </i>
   <i type="logical" name="LORBITALREAL"> F  </i>
  </separator>
  <separator name="miscellaneous" >
   <i type="int" name="IDIOT">     3</i>
   <i type="int" name="PHON_NSTRUCT">    -1</i>
   <i type="logical" name="LMUSIC"> F  </i>
   <v name="POMASS">     28.08500000</v>
   <v name="DARWINR">      0.00000000</v>
   <v name="DARWINV">      1.00000000</v>
   <i type="logical" name="LCORR"> T  </i>
  </separator>
  <i type="logical" name="GGA_COMPAT"> T  </i>
  <i type="logical" name="LBERRY"> F  </i>
  <i type="int" name="ICORELEVEL">     0</i>
  <i type="logical" name="LDAU"> F  </i>
  <i type="int" name="I_CONSTRAINED_M">     0</i>
  <separator name="electronic exchange-correlation" >
   <i type="string" name="GGA    ">PE</i>
   <i type="string" name="XC_C">1</i>
   <i type="int" name="VOSKOWN">     0</i>
   <i type="logical" name="LHFCALC"> F  </i>
   <i type="string" name="PRECFOCK"></i>
   <i type="logical" name="LSYMGRAD"> F  </i>
   <i type="logical" name="LHFONE"> F  </i>
   <i type="logical" name="LRHFCALC"> F  </i>
   <i type="logical" name="LTHOMAS"> F  </i>
   <i type="logical" name="LMODELHF"> F  </i>
   <i type="logical" name="LFOCKACE"> F  </i>
   <i name="ENCUT4O">     -1.00000000</i>
   <i type="int" name="EXXOEP">     0</i>
   <i type="int" name="FOURORBIT">     0</i>
   <i name="AEXX">      0.00000000</i>
   <i name="HFALPHA">      0.00000000</i>
   <i name="MCALPHA">      0.00000000</i>
   <i name="ALDAX">      1.00000000</i>
   <i name="AGGAX">      1.00000000</i>
   <i name="AMGGAX">      1.00000000</i>
   <i name="ALDAC">      1.00000000</i>
   <i name="AGGAC">      1.00000000</i>
   <i name="AMGGAC">      1.00000000</i>
   <i type="int" name="NKREDX">     1</i>
   <i type="int" name="NKREDY">     1</i>
   <i type="int" name="NKREDZ">     1</i>
   <i type="logical" name="SHIFTRED"> F  </i>
   <i type="logical" name="ODDONLY"> F  </i>
   <i type="logical" name="EVENONLY"> F  </i>
   <i type="int" name="LMAXFOCK">     0</i>
   <i type="int" name="NMAXFOCKAE">     0</i>
   <i type="logical" name="LFOCKAEDFT"> F  </i>
   <i name="HFSCREEN">      0.00000000</i>
   <i name="HFSCREENC">      0.00000000</i>
   <i type="int" name="NBANDSGWLOW">     0</i>
  </separator>
  <separator name="vdW DFT" >
   <i type="logical" name="LUSE_VDW"> F  </i>
   <i type="int" name="IVDW_NL">    -1</i>
   <i type="logical" name="LSPIN_VDW"> F  </i>
   <i name="ZAB_VDW">     -0.84910000</i>
   <i name="GAMMA_VDW">      1.39626340</i>
   <i name="ALPHA_VDW">      0.00000000</i>
   <i name="PARAM1">      0.12340000</i>
   <i name="PARAM2">      1.00000000</i>
   <i name="BPARAM">      6.30000000</i>
   <i name="CPARAM">      0.00930000</i>
  </separator>
  <separator name="model GW" >
   <i type="int" name="MODEL_GW">     0</i>
   <i name="MODEL_EPS0">     12.26648830</i>
   <i name="MODEL_ALPHA">      1.00000000</i>
  </separator>
  <separator name="linear response parameters" >
   <i type="logical" name="LEPSILON"> F  </i>
   <i type="logical" name="LRPA"> F  </i>
   <i type="logical" name="LNABLA"> F  </i>
   <i type="logical" name="LVEL"> F  </i>
   <i name="CSHIFT">      0.10000000</i>
   <i name="OMEGAMAX">     -1.00000000</i>
   <i name="DEG_THRESHOLD">      0.00200000</i>
   <i name="RTIME">     -0.10000000</i>
   <i name="WPLASMAI">      0.00000000</i>
   <v name="DFIELD">      0.00000000      0.00000000      0.00000000</v>
   <v name="WPLASMA">      0.00000000      0.00000000      0.00000000      0.00000000      0.00000000      0.00000000      0.00000000      0.00000000      0.00000000</v>
  </separator>
  <separator name="orbital magnetization" >
   <i type="logical" name="NUCIND"> F  </i>
   <v name="MAGPOS">      0.00000000      0.00000000      0.00000000</v>
   <i type="logical" name="LNICSALL"> T  </i>
   <i type="logical" name="ORBITALMAG"> F  </i>
   <i type="logical" name="LMAGBLOCH"> F  </i>
   <i type="logical" name="LCHIMAG"> F  </i>
   <i type="logical" name="LGAUGE"> T  </i>
   <i type="int" name="MAGATOM">     0</i>
   <v name="MAGDIPOL">      0.00000000      0.00000000      0.00000000</v>
   <v name="AVECCONST">      0.00000000      0.00000000      0.00000000</v>
  </separator>
  <separator name="response functions" >
   <i type="logical" name="LALL_IN_ONE"> F  </i>
   <i type="int" name="IALL_IN_ONE">    -1</i>
   <i type="int" name="NBANDS_WAVE">    -1</i>
   <i type="logical" name="LFINITE_TEMPERATURE"> F  </i>
   <i type="logical" name="LADDER"> F  </i>
   <i type="logical" name="LRPAFORCE"> F  </i>
   <i type="logical" name="LFXC"> F  </i>
   <i type="logical" name="LHARTREE"> T  </i>
   <i type="int" name="IBSE">     2</i>
   <v type="int" name="KPOINT">    -1     0     0     0</v>
   <i type="logical" name="LTCTC"> F  </i>
   <i type="logical" name="LTCTE"> F  </i>
   <i type="logical" name="LTETE"> F  </i>
   <i type="logical" name="LTRIPLET"> F  </i>
   <i type="logical" name="LFXCEPS"> F  </i>
   <i type="logical" name="LFXHEG"> F  </i>
   <i type="int" name="NATURALO">     2</i>
   <i type="logical" name="LHOLEGF"> F  </i>
   <i type="logical" name="L2ORDER"> F  </i>
   <i type="logical" name="LDMP1"> F  </i>
   <i type="logical" name="LMP2LT"> F  </i>
   <i type="logical" name="LSMP2LT"> F  </i>
   <i type="logical" name="LGWLF"> F  </i>
   <i name="ENCUTGW">     -1.60000002</i>
   <i name="ENCUTGWSOFT">     -1.60000002</i>
   <i name="ENCUTLF">     -1.00000000</i>
   <i type="logical" name="ESF_SPLINES"> F  </i>
   <i name="ESF_CONV">      0.01000000</i>
   <i type="int" name="ESF_NINTER">    15</i>
   <i type="int" name="LMAXMP2">    -1</i>
   <i name="SCISSOR">      0.00000000</i>
   <i type="int" name="NOMEGA">     0</i>
   <i type="int" name="NOMEGAR">     0</i>
   <i type="int" name="NBANDSGW">    -1</i>
   <i type="int" name="NBANDSO">    -1</i>
   <i type="int" name="NBANDSV">    -1</i>
   <i type="int" name="NELMGW">     1</i>
   <i type="int" name="NELMHF">     1</i>
   <i type="int" name="DIM">     3</i>
   <i type="int" name="IESPILON">     4</i>
   <i type="int" name="ANTIRES">     0</i>
   <i name="OMEGAMAX">    -30.00000000</i>
   <i name="OMEGAMIN">    -30.00000000</i>
   <i name="OMEGATL">   -200.00000000</i>
   <i type="int" name="OMEGAGRID">     0</i>
   <i name="CSHIFT">     -0.10000000</i>
   <i type="logical" name="LSELFENERGY"> F  </i>
   <i type="logical" name="LSPECTRAL"> F  </i>
   <i type="logical" name="LSPECTRALGW"> F  </i>
   <i type="logical" name="LSINGLES"> F  </i>
   <i type="logical" name="LFERMIGW"> F  </i>
   <i type="logical" name="ODDONLYGW"> F  </i>
   <i type="logical" name="EVENONLYGW"> F  </i>
   <i type="int" name="NKREDLFX">     1</i>
   <i type="int" name="NKREDLFY">     1</i>
   <i type="int" name="NKREDLFZ">     1</i>
   <i type="int" name="MAXMEM">  2800</i>
   <i type="int" name="TELESCOPE">     0</i>
   <i type="int" name="NTAUPAR">    -1</i>
   <i type="int" name="NOMEGAPAR">    -1</i>
   <i name="DAMP_NEWTON">      0.80000001</i>
   <i name="LAMBDA">      1.00000000</i>
  </separator>
  <separator name="External order field" >
   <i name="OFIELD_KAPPA">      0.00000000</i>
   <v name="OFIELD_K">      0.00000000      0.00000000      0.00000000</v>
   <i name="OFIELD_Q6_NEAR">      0.00000000</i>
   <i name="OFIELD_Q6_FAR">      0.00000000</i>
   <i name="OFIELD_A">      0.00000000</i>
  </separator>
  <separator name="optional k-points parameters" >
   <i type="int" name="KPOINTS_OPT_MODE">     1</i>
   <i type="logical" name="LKPOINTS_OPT"> F  </i>
  </separator>
 </parameters>
 <atominfo>
  <atoms>       8 </atoms>
  <types>       1 </types>
  <array name="atoms" >
   <dimension dim="1">ion</dimension>
   <field type="string">element</field>
   <field type="int">atomtype</field>
   <set>
    <rc><c>Si</c><c>   1</c></rc>
    <rc><c>Si</c><c>   1</c></rc>
    <rc><c>Si</c><c>   1</c></rc>
    <rc><c>Si</c><c>   1</c></rc>
    <rc><c>Si</c><c>   1</c></rc>
    <rc><c>Si</c><c>   1</c></rc>
    <rc><c>Si</c><c>   1</c></rc>
    <rc><c>Si</c><c>   1</c></rc>
   </set>
  </array>
  <array name="atomtypes" >
   <dimension dim="1">type</dimension>
   <field type="int">atomspertype</field>
   <field type="string">element</field>
   <field>mass</field>
   <field>valence</field>
   <field type="string">pseudopotential</field>
   <set>
    <rc><c>   8</c><c>Si</c><c>     28.08500000</c><c>      4.00000000</c><c>  PAW_PBE Si 05Jan2001                  </c></rc>
   </set>
  </array>
 </atominfo>
 <structure name="initialpos" >
  <crystal>
   <varray name="basis" >
    <v>       5.46872807       0.00000000       0.00000000 </v>
    <v>       0.00000000       5.46872807       0.00000000 </v>
    <v>       0.00000000       0.00000000       5.46872807 </v>
   </varray>
   <i name="volume">    163.55317727 </i>
   <varray name="rec_basis" >
    <v>       0.18285788       0.00000000       0.00000000 </v>
    <v>       0.00000000       0.18285788       0.00000000 </v>
    <v>       0.00000000       0.00000000       0.18285788 </v>
   </varray>
  </crystal>
  <varray name="positions" >
   <v>       0.25000000       0.75000000       0.25000000 </v>
   <v>       0.00000000       0.00000000       0.50000000 </v>
   <v>       0.25000000       0.25000000       0.75000000 </v>
   <v>       0.00000000       0.50000000       0.00000000 </v>
   <v>       0.75000000       0.75000000       0.75000000 </v>
   <v>       0.50000000       0.00000000       0.00000000 </v>
   <v>       0.75000000       0.25000000       0.25000000 </v>
   <v>       0.50000000       0.50000000       0.50000000 </v>
  </varray>
  <varray name="velocities" >
   <v>      -0.00207141       0.00014491       0.00034739 </v>
   <v>      -0.00282794      -0.00166106       0.00612857 </v>
   <v>      -0.00222876      -0.00428765      -0.00807470 </v>
   <v>       0.00100859      -0.00350873       0.00404180 </v>
   <v>       0.00107531       0.00213834       0.00424063 </v>
   <v>      -0.00359782       0.00561313      -0.00698795 </v>
   <v>       0.00356252       0.00340823       0.00419280 </v>
   <v>       0.00507950      -0.00184716      -0.00388853 </v>
  </varray>
 </structure>
 <calculation>
  <scstep>
   <time name="diag">    0.32    0.01</time>
   <time name="diis">    0.20    0.01</time>
   <time name="orth">    0.04    0.00</time>
   <time name="total">    0.85    0.02</time>
   <energy>
    <i name="alphaZ">     13.17272099 </i>
    <i name="ewald">   -907.77962997 </i>
    <i name="hartreedc">    -45.29355833 </i>
    <i name="XCdc">    -74.72173449 </i>
    <i name="pawpsdc">    704.99039692 </i>
    <i name="pawaedc">   -564.24414232 </i>
    <i name="eentropy">     -0.00000000 </i>
    <i name="bandstr">    124.94163860 </i>
    <i name="atom">    824.43180455 </i>
    <i name="e_fr_energy">     75.49749595 </i>
    <i name="e_wo_entrp">     75.49749595 </i>
    <i name="e_0_energy">     75.49749595 </i>
   </energy>
  </scstep>
  <scstep>
   <time name="diag">    0.23    0.01</time>
   <time name="diis">    0.15    0.00</time>
   <time name="orth">    0.04    0.00</time>
   <time name="total">    0.43    0.01</time>
   <energy>
    <i name="e_fr_energy">     -8.75518671 </i>
    <i name="e_wo_entrp">     -8.75518671 </i>
    <i name="e_0_energy">     -8.75518671 </i>
   </energy>
  </scstep>
  <scstep>
   <time name="diag">    0.19    0.00</time>
   <time name="diis">    0.14    0.00</time>
   <time name="orth">    0.05    0.00</time>
   <time name="total">    0.39    0.01</time>
   <energy>
    <i name="e_fr_energy">    -22.65108482 </i>
    <i name="e_wo_entrp">    -22.53017299 </i>
    <i name="e_0_energy">    -22.59062891 </i>
   </energy>
  </scstep>
  <scstep>
   <time name="diag">    0.20    0.00</time>
   <time name="diis">    0.14    0.00</time>
   <time name="orth">    0.04    0.00</time>
   <time name="total">    0.39    0.01</time>
   <energy>
    <i name="e_fr_energy">    -29.53035661 </i>
    <i name="e_wo_entrp">    -29.40493959 </i>
    <i name="e_0_energy">    -29.46764810 </i>
   </energy>
  </scstep>
  <scstep>
   <time name="diag">    0.16    0.00</time>
   <time name="diis">    0.14    0.00</time>
   <time name="orth">    0.04    0.00</time>
   <time name="total">    0.35    0.01</time>
   <energy>
    <i name="e_fr_energy">    -31.56679114 </i>
    <i name="e_wo_entrp">    -31.52821897 </i>
    <i name="e_0_energy">    -31.54750505 </i>
   </energy>
  </scstep>
  <scstep>
   <time name="diag">    0.15    0.00</time>
   <time name="diis">    0.14    0.00</time>
   <time name="orth">    0.02    0.00</time>
   <time name="total">    0.31    0.01</time>
   <energy>
    <i name="e_fr_energy">    -32.71700145 </i>
    <i name="e_wo_entrp">    -32.71648035 </i>
    <i name="e_0_energy">    -32.71674090 </i>
   </energy>
  </scstep>
  <scstep>
   <time name="diag">    0.14    0.00</time>
   <time name="diis">    0.14    0.00</time>
   <time name="orth">    0.02    0.00</time>
   <time name="total">    0.31    0.01</time>
   <energy>
    <i name="e_fr_energy">    -33.38978021 </i>
    <i name="e_wo_entrp">    -33.38977680 </i>
    <i name="e_0_energy">    -33.38977851 </i>
   </energy>
  </scstep>
  <scstep>
   <time name="diag">    0.15    0.00</time>
   <time name="diis">    0.14    0.00</time>
   <time name="orth">    0.02    0.00</time>
   <time name="total">    0.31    0.01</time>
   <energy>
    <i name="e_fr_energy">    -33.79085172 </i>
    <i name="e_wo_entrp">    -33.79085169 </i>
    <i name="e_0_energy">    -33.79085171 </i>
   </energy>
  </scstep>
  <scstep>
   <time name="diag">    0.15    0.00</time>
   <time name="diis">    0.32    0.01</time>
   <time name="orth">    0.02    0.00</time>
   <time name="total">    0.49    0.01</time>
   <energy>
    <i name="e_fr_energy">    -34.46867949 </i>
    <i name="e_wo_entrp">    -34.46867949 </i>
    <i name="e_0_energy">    -34.46867949 </i>
   </energy>
  </scstep>
  <scstep>
   <time name="diag">    0.14    0.00</time>
   <time name="diis">    0.26    0.01</time>
   <time name="orth">    0.02    0.00</time>
   <time name="total">    0.43    0.01</time>
   <energy>
    <i name="e_fr_energy">    -34.52445382 </i>
    <i name="e_wo_entrp">    -34.52445382 </i>
    <i name="e_0_energy">    -34.52445382 </i>
   </energy>
  </scstep>
  <scstep>
   <time name="diag">    0.15    0.00</time>
   <time name="diis">    0.26    0.01</time>
   <time name="orth">    0.02    0.00</time>
   <time name="total">    0.43    0.01</time>
   <energy>
    <i name="e_fr_energy">    -34.52805663 </i>
    <i name="e_wo_entrp">    -34.52805663 </i>
    <i name="e_0_energy">    -34.52805663 </i>
   </energy>
  </scstep>
  <scstep>
   <time name="diag">    0.14    0.00</time>
   <time name="diis">    0.23    0.01</time>
   <time name="orth">    0.02    0.00</time>
   <time name="total">    0.48    0.01</time>
   <energy>
    <i name="e_fr_energy">    -34.52877079 </i>
    <i name="e_wo_entrp">    -34.52877079 </i>
    <i name="e_0_energy">    -34.52877079 </i>
   </energy>
  </scstep>
  <scstep>
   <time name="diag">    0.14    0.00</time>
   <time name="diis">    0.37    0.01</time>
   <time name="orth">    0.02    0.00</time>
   <time name="total">    0.75    0.02</time>
   <energy>
    <i name="e_fr_energy">    -33.50520085 </i>
    <i name="e_wo_entrp">    -33.50520085 </i>
    <i name="e_0_energy">    -33.50520085 </i>
   </energy>
  </scstep>
  <scstep>
   <time name="diag">    0.13    0.00</time>
   <time name="diis">    0.40    0.01</time>
   <time name="orth">    0.02    0.00</time>
   <time name="total">    0.76    0.02</time>
   <energy>
    <i name="e_fr_energy">    -33.10399732 </i>
    <i name="e_wo_entrp">    -33.10395480 </i>
    <i name="e_0_energy">    -33.10397606 </i>
   </energy>
  </scstep>
  <scstep>
   <time name="diag">    0.13    0.00</time>
   <time name="diis">    0.26    0.01</time>
   <time name="orth">    0.02    0.00</time>
   <time name="total">    0.64    0.02</time>
   <energy>
    <i name="e_fr_energy">    -33.12225483 </i>
    <i name="e_wo_entrp">    -33.12224610 </i>
    <i name="e_0_energy">    -33.12225047 </i>
   </energy>
  </scstep>
  <scstep>
   <time name="diag">    0.14    0.00</time>
   <time name="diis">    0.26    0.01</time>
   <time name="orth">    0.02    0.00</time>
   <time name="total">    0.61    0.02</time>
   <energy>
    <i name="e_fr_energy">    -33.12860442 </i>
    <i name="e_wo_entrp">    -33.12859986 </i>
    <i name="e_0_energy">    -33.12860214 </i>
   </energy>
  </scstep>
  <scstep>
   <time name="diag">    0.13    0.00</time>
   <time name="diis">    0.22    0.01</time>
   <time name="orth">    0.02    0.00</time>
   <time name="total">    0.58    0.01</time>
   <energy>
    <i name="e_fr_energy">    -33.12873506 </i>
    <i name="e_wo_entrp">    -33.12873026 </i>
    <i name="e_0_energy">    -33.12873266 </i>
   </energy>
  </scstep>
  <scstep>
   <time name="diag">    0.13    0.00</time>
   <time name="diis">    0.18    0.00</time>
   <time name="orth">    0.02    0.00</time>
   <time name="total">    0.46    0.01</time>
   <energy>
    <i name="alphaZ">     13.17272099 </i>
    <i name="ewald">   -907.77962997 </i>
    <i name="hartreedc">    -70.46761058 </i>
    <i name="XCdc">    -70.92340079 </i>
    <i name="pawpsdc">   6031.13524390 </i>
    <i name="pawaedc">  -5891.48201111 </i>
    <i name="eentropy">     -0.00000453 </i>
    <i name="bandstr">     38.78414986 </i>
    <i name="atom">    824.43180455 </i>
    <i name="e_fr_energy">    -33.12873768 </i>
    <i name="e_wo_entrp">    -33.12873315 </i>
    <i name="e_0_energy">    -33.12873542 </i>
   </energy>
  </scstep>
  <structure>
   <crystal>
    <varray name="basis" >
     <v>       5.46872807       0.00000000       0.00000000 </v>
     <v>       0.00000000       5.46872807       0.00000000 </v>
     <v>       0.00000000       0.00000000       5.46872807 </v>
    </varray>
    <i name="volume">    163.55317727 </i>
    <varray name="rec_basis" >
     <v>       0.18285788       0.00000000       0.00000000 </v>
     <v>       0.00000000       0.18285788       0.00000000 </v>
     <v>       0.00000000       0.00000000       0.18285788 </v>
    </varray>
   </crystal>
   <varray name="positions" >
    <v>       0.25000000       0.75000000       0.25000000 </v>
    <v>       0.00000000       0.00000000       0.50000000 </v>
    <v>       0.25000000       0.25000000       0.75000000 </v>
    <v>       0.00000000       0.50000000       0.00000000 </v>
    <v>       0.75000000       0.75000000       0.75000000 </v>
    <v>       0.50000000       0.00000000       0.00000000 </v>
    <v>       0.75000000       0.25000000       0.25000000 </v>
    <v>       0.50000000       0.50000000       0.50000000 </v>
   </varray>
  </structure>
  <varray name="forces" >
   <v>      -0.00015878      -0.00025295       0.00042511 </v>
   <v>      -0.00018259       0.00001826       0.00034859 </v>
   <v>      -0.00004682      -0.00024527       0.00033133 </v>
   <v>      -0.00013652       0.00009113       0.00023703 </v>
   <v>      -0.00014004      -0.00016439       0.00032977 </v>
   <v>      -0.00019614      -0.00000008       0.00041013 </v>
   <v>      -0.00004934      -0.00022288       0.00028035 </v>
   <v>       0.00002056       0.00005396       0.00029904 </v>
  </varray>
  <varray name="stress" >
   <v>      86.01811763      -0.00032615       0.00510616 </v>
   <v>      -0.00032611      86.00164786      -0.00057651 </v>
   <v>       0.00510623      -0.00057657      86.01032813 </v>
  </varray>
  <energy>
   <i name="e_fr_energy">    -33.12873768 </i>
   <i name="e_wo_entrp">    -33.12873315 </i>
   <i name="e_0_energy">    -33.12873542 </i>
   <i name="kinetic">      1.80965065 </i>
   <i name="lattice kinetic">      0.00000000 </i>
   <i name="nosepot">      0.00000000 </i>
   <i name="nosekinetic">      0.00000000 </i>
   <i name="total">    -31.31908703 </i>
  </energy>
  <time name="totalsc">   11.93    0.30</time>
 </calculation>
 <calculation>
  <scstep>
   <time name="diag">    0.13    0.00</time>
   <time name="diis">    0.24    0.01</time>
   <time name="orth">    0.02    0.00</time>
   <time name="total">    0.59    0.01</time>
   <energy>
    <i name="alphaZ">     13.17272099 </i>
    <i name="ewald">   -907.37642509 </i>
    <i name="hartreedc">    -70.63858012 </i>
    <i name="XCdc">    -70.92537297 </i>
    <i name="pawpsdc">   6024.55211578 </i>
    <i name="pawaedc">  -5884.90037351 </i>
    <i name="eentropy">     -0.00115927 </i>
    <i name="bandstr">     38.64588398 </i>
    <i name="atom">    824.43180455 </i>
    <i name="e_fr_energy">    -33.03938566 </i>
    <i name="e_wo_entrp">    -33.03822639 </i>
    <i name="e_0_energy">    -33.03880602 </i>
   </energy>
  </scstep>
  <scstep>
   <time name="diag">    0.13    0.00</time>
   <time name="diis">    0.24    0.01</time>
   <time name="orth">    0.02    0.00</time>
   <time name="total">    0.59    0.01</time>
   <energy>
    <i name="e_fr_energy">    -33.04456521 </i>
    <i name="e_wo_entrp">    -33.04368575 </i>
    <i name="e_0_energy">    -33.04412548 </i>
   </energy>
  </scstep>
  <scstep>
   <time name="diag">    0.13    0.00</time>
   <time name="diis">    0.24    0.01</time>
   <time name="orth">    0.02    0.00</time>
   <time name="total">    0.60    0.01</time>
   <energy>
    <i name="e_fr_energy">    -33.04501474 </i>
    <i name="e_wo_entrp">    -33.04417359 </i>
    <i name="e_0_energy">    -33.04459416 </i>
   </energy>
  </scstep>
  <scstep>
   <time name="diag">    0.13    0.00</time>
   <time name="diis">    0.24    0.01</time>
   <time name="orth">    0.02    0.00</time>
   <time name="total">    0.59    0.01</time>
   <energy>
    <i name="e_fr_energy">    -33.04522558 </i>
    <i name="e_wo_entrp">    -33.04443164 </i>
    <i name="e_0_energy">    -33.04482861 </i>
   </energy>
  </scstep>
  <scstep>
   <time name="diag">    0.13    0.00</time>
   <time name="diis">    0.26    0.01</time>
   <time name="orth">    0.02    0.00</time>
   <time name="total">    0.62    0.02</time>
   <energy>
    <i name="e_fr_energy">    -33.04533614 </i>
    <i name="e_wo_entrp">    -33.04454695 </i>
    <i name="e_0_energy">    -33.04494154 </i>
   </energy>
  </scstep>
  <scstep>
   <time name="diag">    0.13    0.00</time>
   <time name="diis">    0.19    0.00</time>
   <time name="orth">    0.02    0.00</time>
   <time name="total">    0.48    0.01</time>
   <energy>
    <i name="alphaZ">     13.17272099 </i>
    <i name="ewald">   -907.37642509 </i>
    <i name="hartreedc">    -70.55545352 </i>
    <i name="XCdc">    -70.93659794 </i>
    <i name="pawpsdc">   6017.36548238 </i>
    <i name="pawaedc">  -5877.71523471 </i>
    <i name="eentropy">     -0.00077914 </i>
    <i name="bandstr">     38.56912182 </i>
    <i name="atom">    824.43180455 </i>
    <i name="e_fr_energy">    -33.04536067 </i>
    <i name="e_wo_entrp">    -33.04458152 </i>
    <i name="e_0_energy">    -33.04497110 </i>
   </energy>
  </scstep>
  <structure>
   <crystal>
    <varray name="basis" >
     <v>       5.46872807       0.00000000       0.00000000 </v>
     <v>       0.00000000       5.46872807       0.00000000 </v>
     <v>       0.00000000       0.00000000       5.46872807 </v>
    </varray>
    <i name="volume">    163.55317727 </i>
    <varray name="rec_basis" >
     <v>       0.18285788       0.00000000       0.00000000 </v>
     <v>       0.00000000       0.18285788       0.00000000 </v>
     <v>       0.00000000       0.00000000       0.18285788 </v>
    </varray>
   </crystal>
   <varray name="positions" >
    <v>       0.25340098       0.75181125       0.25315096 </v>
    <v>       0.00360258       0.99535799       0.49827102 </v>
    <v>       0.25064058       0.24857764       0.75391089 </v>
    <v>       0.99976847       0.49671787       0.99699207 </v>
    <v>       0.75656500       0.74719098       0.74706373 </v>
    <v>       0.49590064       0.00675335       0.00235283 </v>
    <v>       0.74685189       0.25018224       0.24287016 </v>
    <v>       0.49326985       0.50340869       0.50538833 </v>
   </varray>
  </structure>
  <varray name="forces" >
   <v>      -0.25954342      -0.16048412      -0.38489678 </v>
   <v>      -0.08160964       0.47401996      -0.21342617 </v>
   <v>      -0.43539645      -0.05729704      -0.23904963 </v>
   <v>       0.34685490       0.17524741       0.28341703 </v>
   <v>      -0.49227243       0.36080983       0.32766961 </v>
   <v>       0.50682855      -0.72245202      -0.36106557 </v>
   <v>      -0.10176537       0.27498969       0.75982988 </v>
   <v>       0.51185952      -0.33193124      -0.10835695 </v>
  </varray>
  <varray name="stress" >
   <v>      86.14407538       2.57109482       2.39890218 </v>
   <v>       2.57109476      86.82763720      -8.15857601 </v>
   <v>       2.39890246      -8.15857607      87.04210607 </v>
  </varray>
  <energy>
   <i name="e_fr_energy">    -33.04536067 </i>
   <i name="e_wo_entrp">    -33.04458152 </i>
   <i name="e_0_energy">    -33.04497110 </i>
   <i name="kinetic">      1.72792816 </i>
   <i name="lattice kinetic">      0.00000000 </i>
   <i name="nosepot">     -0.00000001 </i>
   <i name="nosekinetic">      0.00000000 </i>
   <i name="total">    -31.31743252 </i>
  </energy>
  <time name="totalsc">    5.18    0.13</time>
 </calculation>
 <calculation>
  <scstep>
   <time name="diag">    0.13    0.00</time>
   <time name="diis">    0.24    0.01</time>
   <time name="orth">    0.02    0.00</time>
   <time name="total">    0.58    0.01</time>
   <energy>
    <i name="alphaZ">     13.17272099 </i>
    <i name="ewald">   -906.27703966 </i>
    <i name="hartreedc">    -71.15104603 </i>
    <i name="XCdc">    -70.93575881 </i>
    <i name="pawpsdc">   6014.14187222 </i>
    <i name="pawaedc">  -5874.49311480 </i>
    <i name="eentropy">     -0.03207092 </i>
    <i name="bandstr">     38.30551543 </i>
    <i name="atom">    824.43180455 </i>
    <i name="e_fr_energy">    -32.83711704 </i>
    <i name="e_wo_entrp">    -32.80504612 </i>
    <i name="e_0_energy">    -32.82108158 </i>
   </energy>
  </scstep>
  <scstep>
   <time name="diag">    0.13    0.00</time>
   <time name="diis">    0.26    0.01</time>
   <time name="orth">    0.02    0.00</time>
   <time name="total">    0.61    0.02</time>
   <energy>
    <i name="e_fr_energy">    -32.83469104 </i>
    <i name="e_wo_entrp">    -32.80978336 </i>
    <i name="e_0_energy">    -32.82223720 </i>
   </energy>
  </scstep>
  <scstep>
   <time name="diag">    0.13    0.00</time>
   <time name="diis">    0.26    0.01</time>
   <time name="orth">    0.02    0.00</time>
   <time name="total">    0.60    0.02</time>
   <energy>
    <i name="e_fr_energy">    -32.83472758 </i>
    <i name="e_wo_entrp">    -32.81090103 </i>
    <i name="e_0_energy">    -32.82281430 </i>
   </energy>
  </scstep>
  <scstep>
   <time name="diag">    0.13    0.00</time>
   <time name="diis">    0.22    0.01</time>
   <time name="orth">    0.02    0.00</time>
   <time name="total">    0.51    0.01</time>
   <energy>
    <i name="alphaZ">     13.17272099 </i>
    <i name="ewald">   -906.27703966 </i>
    <i name="hartreedc">    -70.48300405 </i>
    <i name="XCdc">    -71.00601426 </i>
    <i name="pawpsdc">   5998.33101528 </i>
    <i name="pawaedc">  -5858.67234589 </i>
    <i name="eentropy">     -0.02359853 </i>
    <i name="bandstr">     37.69164800 </i>
    <i name="atom">    824.43180455 </i>
    <i name="e_fr_energy">    -32.83481356 </i>
    <i name="e_wo_entrp">    -32.81121504 </i>
    <i name="e_0_energy">    -32.82301430 </i>
   </energy>
  </scstep>
  <structure>
   <crystal>
    <varray name="basis" >
     <v>       5.46872807       0.00000000       0.00000000 </v>
     <v>       0.00000000       5.46872807       0.00000000 </v>
     <v>       0.00000000       0.00000000       5.46872807 </v>
    </varray>
    <i name="volume">    163.55317727 </i>
    <varray name="rec_basis" >
     <v>       0.18285788       0.00000000       0.00000000 </v>
     <v>       0.00000000       0.18285788       0.00000000 </v>
     <v>       0.00000000       0.00000000       0.18285788 </v>
    </varray>
   </crystal>
   <varray name="positions" >
    <v>       0.25665557       0.75353085       0.25607978 </v>
    <v>       0.00715938       0.99098307       0.49641683 </v>
    <v>       0.25103535       0.24712197       0.75768210 </v>
    <v>       0.99973341       0.49353391       0.99413985 </v>
    <v>       0.76285204       0.74458504       0.74430819 </v>
    <v>       0.49208820       0.01309732       0.00449699 </v>
    <v>       0.74364659       0.25051904       0.23616539 </v>
    <v>       0.48682946       0.50662880       0.51071087 </v>
   </varray>
  </structure>
  <varray name="forces" >
   <v>      -0.36844230      -0.34902675      -0.89625725 </v>
   <v>      -0.20340002       0.90825257      -0.28400378 </v>
   <v>      -0.71962199      -0.18747980      -0.58449365 </v>
   <v>       0.54384298       0.35398931       0.55328754 </v>
   <v>      -0.63520453       0.52184394       0.47308254 </v>
   <v>       0.70978272      -1.27166147      -0.55417455 </v>
   <v>      -0.04461411       0.50706054       1.29684239 </v>
   <v>       0.67415549      -0.47581861       0.01157018 </v>
  </varray>
  <varray name="stress" >
   <v>      85.41558102       2.39134174       4.85938805 </v>
   <v>       2.39134186      85.26729946     -17.10730928 </v>
   <v>       4.85938809     -17.10730935      87.83744191 </v>
  </varray>
  <energy>
   <i name="e_fr_energy">    -32.83481356 </i>
   <i name="e_wo_entrp">    -32.81121504 </i>
   <i name="e_0_energy">    -32.82301430 </i>
   <i name="kinetic">      1.52726049 </i>
   <i name="lattice kinetic">      0.00000000 </i>
   <i name="nosepot">     -0.00168974 </i>
   <i name="nosekinetic">      0.00015013 </i>
   <i name="total">    -31.30909268 </i>
  </energy>
  <time name="totalsc">    3.86    0.10</time>
 </calculation>
 <calculation>
  <scstep>
   <time name="diag">    0.13    0.00</time>
   <time name="diis">    0.24    0.01</time>
   <time name="orth">    0.02    0.00</time>
   <time name="total">    0.58    0.01</time>
   <energy>
    <i name="alphaZ">     13.17272099 </i>
    <i name="ewald">   -904.71526800 </i>
    <i name="hartreedc">    -69.53249235 </i>
    <i name="XCdc">    -71.18779061 </i>
    <i name="pawpsdc">   5896.25537438 </i>
    <i name="pawaedc">  -5756.58022737 </i>
    <i name="eentropy">     -0.07782003 </i>
    <i name="bandstr">     35.63125507 </i>
    <i name="atom">    824.43180455 </i>
    <i name="e_fr_energy">    -32.60244337 </i>
    <i name="e_wo_entrp">    -32.52462334 </i>
    <i name="e_0_energy">    -32.56353335 </i>
   </energy>
  </scstep>
  <scstep>
   <time name="diag">    0.13    0.00</time>
   <time name="diis">    0.26    0.01</time>
   <time name="orth">    0.02    0.00</time>
   <time name="total">    0.62    0.02</time>
   <energy>
    <i name="e_fr_energy">    -32.60079852 </i>
    <i name="e_wo_entrp">    -32.53309257 </i>
    <i name="e_0_energy">    -32.56694554 </i>
   </energy>
  </scstep>
  <scstep>
   <time name="diag">    0.13    0.00</time>
   <time name="diis">    0.26    0.01</time>
   <time name="orth">    0.02    0.00</time>
   <time name="total">    0.61    0.02</time>
   <energy>
    <i name="e_fr_energy">    -32.60091896 </i>
    <i name="e_wo_entrp">    -32.53122466 </i>
    <i name="e_0_energy">    -32.56607181 </i>
   </energy>
  </scstep>
  <scstep>
   <time name="diag">    0.13    0.00</time>
   <time name="diis">    0.24    0.01</time>
   <time name="orth">    0.02    0.00</time>
   <time name="total">    0.53    0.01</time>
   <energy>
    <i name="alphaZ">     13.17272099 </i>
    <i name="ewald">   -904.71526800 </i>
    <i name="hartreedc">    -69.56635340 </i>
    <i name="XCdc">    -71.19752949 </i>
    <i name="pawpsdc">   5866.83193685 </i>
    <i name="pawaedc">  -5727.14951892 </i>
    <i name="eentropy">     -0.06940845 </i>
    <i name="bandstr">     35.66060797 </i>
    <i name="atom">    824.43180455 </i>
    <i name="e_fr_energy">    -32.60100789 </i>
    <i name="e_wo_entrp">    -32.53159945 </i>
    <i name="e_0_energy">    -32.56630367 </i>
   </energy>
  </scstep>
  <structure>
   <crystal>
    <varray name="basis" >
     <v>       5.46872807       0.00000000       0.00000000 </v>
     <v>       0.00000000       5.46872807       0.00000000 </v>
     <v>       0.00000000       0.00000000       5.46872807 </v>
    </varray>
    <i name="volume">    163.55317727 </i>
    <varray name="rec_basis" >
     <v>       0.18285788       0.00000000       0.00000000 </v>
     <v>       0.00000000       0.18285788       0.00000000 </v>
     <v>       0.00000000       0.00000000       0.18285788 </v>
    </varray>
   </crystal>
   <varray name="positions" >
    <v>       0.25970787       0.75505413       0.25850324 </v>
    <v>       0.01060753       0.98711731       0.49439915 </v>
    <v>       0.25102651       0.24555840       0.76112509 </v>
    <v>       0.00000901       0.49054670       0.99159681 </v>
    <v>       0.76878873       0.74227134       0.74181656 </v>
    <v>       0.48867675       0.01872740       0.00632856 </v>
    <v>       0.74041614       0.25114246       0.23018678 </v>
    <v>       0.48076746       0.50958226       0.51604381 </v>
   </varray>
  </structure>
  <varray name="forces" >
   <v>      -0.12434795      -0.69348778      -1.41485887 </v>
   <v>      -0.45331576       1.22297205      -0.02966146 </v>
   <v>      -0.61903310      -0.46995549      -0.98846311 </v>
   <v>       0.43539054       0.69482478       0.75467562 </v>
   <v>      -0.33916054       0.44577576       0.41191749 </v>
   <v>       0.45538351      -1.58231785      -0.55341151 </v>
   <v>       0.30530832       0.63694978       1.46719416 </v>
   <v>       0.33460257      -0.24936505       0.35011369 </v>
  </varray>
  <varray name="stress" >
   <v>      86.64190111      -2.82804728       7.39925698 </v>
   <v>      -2.82804735      77.02826005     -29.04346213 </v>
   <v>       7.39925703     -29.04346238      86.32289334 </v>
  </varray>
  <energy>
   <i name="e_fr_energy">    -32.60100789 </i>
   <i name="e_wo_entrp">    -32.53159945 </i>
   <i name="e_0_energy">    -32.56630367 </i>
   <i name="kinetic">      1.30359851 </i>
   <i name="lattice kinetic">      0.00000000 </i>
   <i name="nosepot">     -0.00923803 </i>
   <i name="nosekinetic">      0.00180481 </i>
   <i name="total">    -31.30484260 </i>
  </energy>
  <time name="totalsc">    3.88    0.10</time>
 </calculation>
 <calculation>
  <scstep>
   <time name="diag">    0.13    0.00</time>
   <time name="diis">    0.26    0.01</time>
   <time name="orth">    0.02    0.00</time>
   <time name="total">    0.60    0.01</time>
   <energy>
    <i name="alphaZ">     13.17272099 </i>
    <i name="ewald">   -902.93623840 </i>
    <i name="hartreedc">    -67.89422283 </i>
    <i name="XCdc">    -71.48483139 </i>
    <i name="pawpsdc">   5655.12100599 </i>
    <i name="pawaedc">  -5515.38504687 </i>
    <i name="eentropy">     -0.07748257 </i>
    <i name="bandstr">     32.61291675 </i>
    <i name="atom">    824.43180455 </i>
    <i name="e_fr_energy">    -32.43937378 </i>
    <i name="e_wo_entrp">    -32.36189121 </i>
    <i name="e_0_energy">    -32.40063250 </i>
   </energy>
  </scstep>
  <scstep>
   <time name="diag">    0.13    0.00</time>
   <time name="diis">    0.24    0.01</time>
   <time name="orth">    0.02    0.00</time>
   <time name="total">    0.59    0.01</time>
   <energy>
    <i name="e_fr_energy">    -32.41935174 </i>
    <i name="e_wo_entrp">    -32.32177881 </i>
    <i name="e_0_energy">    -32.37056527 </i>
   </energy>
  </scstep>
  <scstep>
   <time name="diag">    0.13    0.00</time>
   <time name="diis">    0.26    0.01</time>
   <time name="orth">    0.02    0.00</time>
   <time name="total">    0.60    0.02</time>
   <energy>
    <i name="e_fr_energy">    -32.41594720 </i>
    <i name="e_wo_entrp">    -32.31922139 </i>
    <i name="e_0_energy">    -32.36758430 </i>
   </energy>
  </scstep>
  <scstep>
   <time name="diag">    0.13    0.00</time>
   <time name="diis">    0.26    0.01</time>
   <time name="orth">    0.02    0.00</time>
   <time name="total">    0.61    0.02</time>
   <energy>
    <i name="e_fr_energy">    -32.41609059 </i>
    <i name="e_wo_entrp">    -32.31821919 </i>
    <i name="e_0_energy">    -32.36715489 </i>
   </energy>
  </scstep>
  <scstep>
   <time name="diag">    0.13    0.00</time>
   <time name="diis">    0.22    0.01</time>
   <time name="orth">    0.02    0.00</time>
   <time name="total">    0.57    0.01</time>
   <energy>
    <i name="e_fr_energy">    -32.41621509 </i>
    <i name="e_wo_entrp">    -32.31871296 </i>
    <i name="e_0_energy">    -32.36746403 </i>
   </energy>
  </scstep>
  <scstep>
   <time name="diag">    0.13    0.00</time>
   <time name="diis">    0.19    0.00</time>
   <time name="orth">    0.02    0.00</time>
   <time name="total">    0.48    0.01</time>
   <energy>
    <i name="alphaZ">     13.17272099 </i>
    <i name="ewald">   -902.93623840 </i>
    <i name="hartreedc">    -68.76769550 </i>
    <i name="XCdc">    -71.39292390 </i>
    <i name="pawpsdc">   5750.05265585 </i>
    <i name="pawaedc">  -5610.33700146 </i>
    <i name="eentropy">     -0.09784890 </i>
    <i name="bandstr">     33.45828317 </i>
    <i name="atom">    824.43180455 </i>
    <i name="e_fr_energy">    -32.41624359 </i>
    <i name="e_wo_entrp">    -32.31839469 </i>
    <i name="e_0_energy">    -32.36731914 </i>
   </energy>
  </scstep>
  <structure>
   <crystal>
    <varray name="basis" >
     <v>       5.46872807       0.00000000       0.00000000 </v>
     <v>       0.00000000       5.46872807       0.00000000 </v>
     <v>       0.00000000       0.00000000       5.46872807 </v>
    </varray>
    <i name="volume">    163.55317727 </i>
    <varray name="rec_basis" >
     <v>       0.18285788       0.00000000       0.00000000 </v>
     <v>       0.00000000       0.18285788       0.00000000 </v>
     <v>       0.00000000       0.00000000       0.18285788 </v>
    </varray>
   </crystal>
   <varray name="positions" >
    <v>       0.26270002       0.75618924       0.26013350 </v>
    <v>       0.01381051       0.98393120       0.49235830 </v>
    <v>       0.25066745       0.24372323       0.76401966 </v>
    <v>       0.00053243       0.48794290       0.98947307 </v>
    <v>       0.77455296       0.74020219       0.73955029 </v>
    <v>       0.48551249       0.02347929       0.00785285 </v>
    <v>       0.73734848       0.25212823       0.22501984 </v>
    <v>       0.47487566       0.51240371       0.52159248 </v>
   </varray>
  </structure>
  <varray name="forces" >
   <v>       0.19222542      -1.01728480      -1.85064776 </v>
   <v>      -0.66820535       1.38225845       0.32118966 </v>
   <v>      -0.42618481      -0.74100705      -1.37935826 </v>
   <v>       0.23117743       1.01369057       0.88359927 </v>
   <v>       0.04601401       0.26716333       0.20790568 </v>
   <v>       0.00585100      -1.76020541      -0.32554871 </v>
   <v>       0.75500012       0.71159711       1.39788464 </v>
   <v>      -0.09299198       0.10432023       0.74510763 </v>
  </varray>
  <varray name="stress" >
   <v>      88.93716725     -10.23224434       7.53354031 </v>
   <v>     -10.23224423      66.89426485     -37.82281226 </v>
   <v>       7.53354024     -37.82281216      83.92546939 </v>
  </varray>
  <energy>
   <i name="e_fr_energy">    -32.41624359 </i>
   <i name="e_wo_entrp">    -32.31839469 </i>
   <i name="e_0_energy">    -32.36731914 </i>
   <i name="kinetic">      1.13383030 </i>
   <i name="lattice kinetic">      0.00000000 </i>
   <i name="nosepot">     -0.02731657 </i>
   <i name="nosekinetic">      0.00785218 </i>
   <i name="total">    -31.30187768 </i>
  </energy>
  <time name="totalsc">    4.99    0.12</time>
 </calculation>
 <calculation>
  <scstep>
   <time name="diag">    0.13    0.00</time>
   <time name="diis">    0.27    0.01</time>
   <time name="orth">    0.02    0.00</time>
   <time name="total">    0.61    0.02</time>
   <energy>
    <i name="alphaZ">     13.17272099 </i>
    <i name="ewald">   -901.14595318 </i>
    <i name="hartreedc">    -67.77709728 </i>
    <i name="XCdc">    -71.61141681 </i>
    <i name="pawpsdc">   5641.65970767 </i>
    <i name="pawaedc">  -5501.90279618 </i>
    <i name="eentropy">     -0.11516252 </i>
    <i name="bandstr">     30.95456915 </i>
    <i name="atom">    824.43180455 </i>
    <i name="e_fr_energy">    -32.33362360 </i>
    <i name="e_wo_entrp">    -32.21846108 </i>
    <i name="e_0_energy">    -32.27604234 </i>
   </energy>
  </scstep>
  <scstep>
   <time name="diag">    0.13    0.00</time>
   <time name="diis">    0.26    0.01</time>
   <time name="orth">    0.02    0.00</time>
   <time name="total">    0.61    0.02</time>
   <energy>
    <i name="e_fr_energy">    -32.33147576 </i>
    <i name="e_wo_entrp">    -32.22216540 </i>
    <i name="e_0_energy">    -32.27682058 </i>
   </energy>
  </scstep>
  <scstep>
   <time name="diag">    0.13    0.00</time>
   <time name="diis">    0.26    0.01</time>
   <time name="orth">    0.02    0.00</time>
   <time name="total">    0.60    0.02</time>
   <energy>
    <i name="e_fr_energy">    -32.33081724 </i>
    <i name="e_wo_entrp">    -32.21810614 </i>
    <i name="e_0_energy">    -32.27446169 </i>
   </energy>
  </scstep>
  <scstep>
   <time name="diag">    0.13    0.00</time>
   <time name="diis">    0.28    0.01</time>
   <time name="orth">    0.02    0.00</time>
   <time name="total">    0.63    0.02</time>
   <energy>
    <i name="e_fr_energy">    -32.33094100 </i>
    <i name="e_wo_entrp">    -32.21869492 </i>
    <i name="e_0_energy">    -32.27481796 </i>
   </energy>
  </scstep>
  <scstep>
   <time name="diag">    0.13    0.00</time>
   <time name="diis">    0.20    0.00</time>
   <time name="orth">    0.02    0.00</time>
   <time name="total">    0.48    0.01</time>
   <energy>
    <i name="alphaZ">     13.17272099 </i>
    <i name="ewald">   -901.14595318 </i>
    <i name="hartreedc">    -68.06951196 </i>
    <i name="XCdc">    -71.58189853 </i>
    <i name="pawpsdc">   5638.85647310 </i>
    <i name="pawaedc">  -5499.10882617 </i>
    <i name="eentropy">     -0.11209387 </i>
    <i name="bandstr">     31.22627671 </i>
    <i name="atom">    824.43180455 </i>
    <i name="e_fr_energy">    -32.33100836 </i>
    <i name="e_wo_entrp">    -32.21891449 </i>
    <i name="e_0_energy">    -32.27496142 </i>
   </energy>
  </scstep>
  <structure>
   <crystal>
    <varray name="basis" >
     <v>       5.46872807       0.00000000       0.00000000 </v>
     <v>       0.00000000       5.46872807       0.00000000 </v>
     <v>       0.00000000       0.00000000       5.46872807 </v>
    </varray>
    <i name="volume">    163.55317727 </i>
    <varray name="rec_basis" >
     <v>       0.18285788       0.00000000       0.00000000 </v>
     <v>       0.00000000       0.18285788       0.00000000 </v>
     <v>       0.00000000       0.00000000       0.18285788 </v>
    </varray>
   </crystal>
   <varray name="positions" >
    <v>       0.26581845       0.75675774       0.26072494 </v>
    <v>       0.01665307       0.98151046       0.49048583 </v>
    <v>       0.25006114       0.24145805       0.76615132 </v>
    <v>       0.00118750       0.48589933       0.98783620 </v>
    <v>       0.78037931       0.73827339       0.73738659 </v>
    <v>       0.48232707       0.02726761       0.00920278 </v>
    <v>       0.73468530       0.25352717       0.22061090 </v>
    <v>       0.46888814       0.51530625       0.52760144 </v>
   </varray>
  </structure>
  <varray name="forces" >
   <v>       0.45783755      -1.20780846      -2.14990835 </v>
   <v>      -0.78788179       1.41379839       0.67787823 </v>
   <v>      -0.33525702      -0.88725825      -1.74866970 </v>
   <v>       0.05562771       1.18776561       0.88708605 </v>
   <v>       0.36011905      -0.09590626      -0.14770225 </v>
   <v>      -0.49847740      -1.74164742       0.14491156 </v>
   <v>       1.24128367       0.66670913       1.07521382 </v>
   <v>      -0.46951649       0.62604318       1.25531240 </v>
  </varray>
  <varray name="stress" >
   <v>      84.52647614     -16.27578534       5.33222623 </v>
   <v>     -16.27578541      58.70695503     -39.04860031 </v>
   <v>       5.33222622     -39.04860032      83.09219741 </v>
  </varray>
  <energy>
   <i name="e_fr_energy">    -32.33100836 </i>
   <i name="e_wo_entrp">    -32.21891449 </i>
   <i name="e_0_energy">    -32.27496142 </i>
   <i name="kinetic">      1.07098316 </i>
   <i name="lattice kinetic">      0.00000000 </i>
   <i name="nosepot">     -0.05945483 </i>
   <i name="nosekinetic">      0.02086186 </i>
   <i name="total">    -31.29861817 </i>
  </energy>
  <time name="totalsc">    4.49    0.11</time>
 </calculation>
 <calculation>
  <scstep>
   <time name="diag">    0.13    0.00</time>
   <time name="diis">    0.26    0.01</time>
   <time name="orth">    0.02    0.00</time>
   <time name="total">    0.59    0.01</time>
   <energy>
    <i name="alphaZ">     13.17272099 </i>
    <i name="ewald">   -899.46474122 </i>
    <i name="hartreedc">    -67.35800846 </i>
    <i name="XCdc">    -71.77693781 </i>
    <i name="pawpsdc">   5523.58317455 </i>
    <i name="pawaedc">  -5383.80271749 </i>
    <i name="eentropy">     -0.10032280 </i>
    <i name="bandstr">     28.92577676 </i>
    <i name="atom">    824.43180455 </i>
    <i name="e_fr_energy">    -32.38925093 </i>
    <i name="e_wo_entrp">    -32.28892813 </i>
    <i name="e_0_energy">    -32.33908953 </i>
   </energy>
  </scstep>
  <scstep>
   <time name="diag">    0.13    0.00</time>
   <time name="diis">    0.26    0.01</time>
   <time name="orth">    0.02    0.00</time>
   <time name="total">    0.61    0.02</time>
   <energy>
    <i name="e_fr_energy">    -32.38652995 </i>
    <i name="e_wo_entrp">    -32.28362005 </i>
    <i name="e_0_energy">    -32.33507500 </i>
   </energy>
  </scstep>
  <scstep>
   <time name="diag">    0.13    0.00</time>
   <time name="diis">    0.26    0.01</time>
   <time name="orth">    0.02    0.00</time>
   <time name="total">    0.60    0.02</time>
   <energy>
    <i name="e_fr_energy">    -32.38648341 </i>
    <i name="e_wo_entrp">    -32.28702543 </i>
    <i name="e_0_energy">    -32.33675442 </i>
   </energy>
  </scstep>
  <scstep>
   <time name="diag">    0.13    0.00</time>
   <time name="diis">    0.28    0.01</time>
   <time name="orth">    0.02    0.00</time>
   <time name="total">    0.56    0.01</time>
   <energy>
    <i name="alphaZ">     13.17272099 </i>
    <i name="ewald">   -899.46474122 </i>
    <i name="hartreedc">    -67.85095189 </i>
    <i name="XCdc">    -71.72094713 </i>
    <i name="pawpsdc">   5552.42685605 </i>
    <i name="pawaedc">  -5412.66255132 </i>
    <i name="eentropy">     -0.10101079 </i>
    <i name="bandstr">     29.38242125 </i>
    <i name="atom">    824.43180455 </i>
    <i name="e_fr_energy">    -32.38639951 </i>
    <i name="e_wo_entrp">    -32.28538873 </i>
    <i name="e_0_energy">    -32.33589412 </i>
   </energy>
  </scstep>
  <structure>
   <crystal>
    <varray name="basis" >
     <v>       5.46872807       0.00000000       0.00000000 </v>
     <v>       0.00000000       5.46872807       0.00000000 </v>
     <v>       0.00000000       0.00000000       5.46872807 </v>
    </varray>
    <i name="volume">    163.55317727 </i>
    <varray name="rec_basis" >
     <v>       0.18285788       0.00000000       0.00000000 </v>
     <v>       0.00000000       0.18285788       0.00000000 </v>
     <v>       0.00000000       0.00000000       0.18285788 </v>
    </varray>
   </crystal>
   <varray name="positions" >
    <v>       0.26922999       0.75664860       0.26010108 </v>
    <v>       0.01907750       0.97986940       0.48897843 </v>
    <v>       0.24925584       0.23866611       0.76731285 </v>
    <v>       0.00187976       0.48451111       0.98668595 </v>
    <v>       0.78647320       0.73627144       0.73511540 </v>
    <v>       0.47882132       0.03011043       0.01065045 </v>
    <v>       0.73269665       0.25532334       0.21676485 </v>
    <v>       0.46256574       0.51859955       0.53439098 </v>
   </varray>
  </structure>
  <varray name="forces" >
   <v>       0.57726034      -1.34332967      -2.16622325 </v>
   <v>      -0.71971329       1.27162253       0.98449471 </v>
   <v>      -0.39059780      -0.82393044      -2.05959551 </v>
   <v>       0.03988434       1.30467314       0.73850798 </v>
   <v>       0.48599002      -0.50308838      -0.46623498 </v>
   <v>      -0.85089408      -1.69047264       0.54378339 </v>
   <v>       1.58555809       0.59922577       0.69855775 </v>
   <v>      -0.68056572       1.14885193       1.70431322 </v>
  </varray>
  <varray name="stress" >
   <v>      76.81788766     -18.85429988       3.60277324 </v>
   <v>     -18.85429995      55.69502953     -40.58622657 </v>
   <v>       3.60277328     -40.58622660      87.06378304 </v>
  </varray>
  <energy>
   <i name="e_fr_energy">    -32.38639951 </i>
   <i name="e_wo_entrp">    -32.28538873 </i>
   <i name="e_0_energy">    -32.33589412 </i>
   <i name="kinetic">      1.15266866 </i>
   <i name="lattice kinetic">      0.00000000 </i>
   <i name="nosepot">     -0.10692096 </i>
   <i name="nosekinetic">      0.03990475 </i>
   <i name="total">    -31.30074707 </i>
  </energy>
  <time name="totalsc">    3.89    0.10</time>
 </calculation>
 <calculation>
  <scstep>
   <time name="diag">    0.13    0.00</time>
   <time name="diis">    0.27    0.01</time>
   <time name="orth">    0.02    0.00</time>
   <time name="total">    0.60    0.01</time>
   <energy>
    <i name="alphaZ">     13.17272099 </i>
    <i name="ewald">   -897.92471301 </i>
    <i name="hartreedc">    -68.25494929 </i>
    <i name="XCdc">    -71.80233783 </i>
    <i name="pawpsdc">   5520.68750440 </i>
    <i name="pawaedc">  -5380.92210262 </i>
    <i name="eentropy">     -0.09355722 </i>
    <i name="bandstr">     28.13292434 </i>
    <i name="atom">    824.43180455 </i>
    <i name="e_fr_energy">    -32.57270571 </i>
    <i name="e_wo_entrp">    -32.47914848 </i>
    <i name="e_0_energy">    -32.52592710 </i>
   </energy>
  </scstep>
  <scstep>
   <time name="diag">    0.13    0.00</time>
   <time name="diis">    0.26    0.01</time>
   <time name="orth">    0.02    0.00</time>
   <time name="total">    0.65    0.02</time>
   <energy>
    <i name="e_fr_energy">    -32.56934007 </i>
    <i name="e_wo_entrp">    -32.47481314 </i>
    <i name="e_0_energy">    -32.52207661 </i>
   </energy>
  </scstep>
  <scstep>
   <time name="diag">    0.13    0.00</time>
   <time name="diis">    0.26    0.01</time>
   <time name="orth">    0.02    0.00</time>
   <time name="total">    0.60    0.02</time>
   <energy>
    <i name="e_fr_energy">    -32.56940036 </i>
    <i name="e_wo_entrp">    -32.47386384 </i>
    <i name="e_0_energy">    -32.52163210 </i>
   </energy>
  </scstep>
  <scstep>
   <time name="diag">    0.13    0.00</time>
   <time name="diis">    0.26    0.01</time>
   <time name="orth">    0.02    0.00</time>
   <time name="total">    0.60    0.01</time>
   <energy>
    <i name="e_fr_energy">    -32.56961212 </i>
    <i name="e_wo_entrp">    -32.47551580 </i>
    <i name="e_0_energy">    -32.52256396 </i>
   </energy>
  </scstep>
  <scstep>
   <time name="diag">    0.13    0.00</time>
   <time name="diis">    0.21    0.01</time>
   <time name="orth">    0.02    0.00</time>
   <time name="total">    0.49    0.01</time>
   <energy>
    <i name="alphaZ">     13.17272099 </i>
    <i name="ewald">   -897.92471301 </i>
    <i name="hartreedc">    -68.59413243 </i>
    <i name="XCdc">    -71.75442504 </i>
    <i name="pawpsdc">   5557.03725696 </i>
    <i name="pawaedc">  -5417.27555040 </i>
    <i name="eentropy">     -0.09499546 </i>
    <i name="bandstr">     28.43236481 </i>
    <i name="atom">    824.43180455 </i>
    <i name="e_fr_energy">    -32.56966903 </i>
    <i name="e_wo_entrp">    -32.47467357 </i>
    <i name="e_0_energy">    -32.52217130 </i>
   </energy>
  </scstep>
  <structure>
   <crystal>
    <varray name="basis" >
     <v>       5.46872807       0.00000000       0.00000000 </v>
     <v>       0.00000000       5.46872807       0.00000000 </v>
     <v>       0.00000000       0.00000000       5.46872807 </v>
    </varray>
    <i name="volume">    163.55317727 </i>
    <varray name="rec_basis" >
     <v>       0.18285788       0.00000000       0.00000000 </v>
     <v>       0.00000000       0.18285788       0.00000000 </v>
     <v>       0.00000000       0.00000000       0.18285788 </v>
    </varray>
   </crystal>
   <varray name="positions" >
    <v>       0.27301940       0.75577506       0.25823511 </v>
    <v>       0.02112573       0.97893024       0.48801039 </v>
    <v>       0.24821231       0.23536453       0.76732041 </v>
    <v>       0.00260203       0.48384750       0.98594039 </v>
    <v>       0.79293409       0.73395476       0.73254535 </v>
    <v>       0.47477368       0.03203637       0.01243172 </v>
    <v>       0.73157747       0.25749106       0.21325938 </v>
    <v>       0.45575529       0.52260049       0.54225725 </v>
   </varray>
  </structure>
  <varray name="forces" >
   <v>       0.44517038      -1.51156420      -1.99826094 </v>
   <v>      -0.51622031       0.98745241       1.01505979 </v>
   <v>      -0.53890819      -0.62155294      -2.13821424 </v>
   <v>       0.19681657       1.36465638       0.48751500 </v>
   <v>       0.31505609      -0.61388129      -0.51815512 </v>
   <v>      -0.74257212      -1.73947076       0.58143791 </v>
   <v>       1.57166886       0.64228400       0.61188627 </v>
   <v>      -0.67741886       1.48541167       1.91972299 </v>
  </varray>
  <varray name="stress" >
   <v>      68.36183246     -16.46551384       4.72091167 </v>
   <v>     -16.46551384      58.10480089     -50.76504997 </v>
   <v>       4.72091149     -50.76505001      94.35520770 </v>
  </varray>
  <energy>
   <i name="e_fr_energy">    -32.56966903 </i>
   <i name="e_wo_entrp">    -32.47467357 </i>
   <i name="e_0_energy">    -32.52217130 </i>
   <i name="kinetic">      1.37558372 </i>
   <i name="lattice kinetic">      0.00000000 </i>
   <i name="nosepot">     -0.16794098 </i>
   <i name="nosekinetic">      0.05891387 </i>
   <i name="total">    -31.30311242 </i>
  </energy>
  <time name="totalsc">    4.47    0.11</time>
 </calculation>
 <calculation>
  <scstep>
   <time name="diag">    0.13    0.00</time>
   <time name="diis">    0.27    0.01</time>
   <time name="orth">    0.02    0.00</time>
   <time name="total">    0.60    0.02</time>
   <energy>
    <i name="alphaZ">     13.17272099 </i>
    <i name="ewald">   -896.52471113 </i>
    <i name="hartreedc">    -70.03838924 </i>
    <i name="XCdc">    -71.71837304 </i>
    <i name="pawpsdc">   5629.51630053 </i>
    <i name="pawaedc">  -5489.77569547 </i>
    <i name="eentropy">     -0.08423455 </i>
    <i name="bandstr">     28.16621561 </i>
    <i name="atom">    824.43180455 </i>
    <i name="e_fr_energy">    -32.85436176 </i>
    <i name="e_wo_entrp">    -32.77012721 </i>
    <i name="e_0_energy">    -32.81224449 </i>
   </energy>
  </scstep>
  <scstep>
   <time name="diag">    0.13    0.00</time>
   <time name="diis">    0.26    0.01</time>
   <time name="orth">    0.02    0.00</time>
   <time name="total">    0.60    0.01</time>
   <energy>
    <i name="e_fr_energy">    -32.85152671 </i>
    <i name="e_wo_entrp">    -32.76040936 </i>
    <i name="e_0_energy">    -32.80596803 </i>
   </energy>
  </scstep>
  <scstep>
   <time name="diag">    0.13    0.00</time>
   <time name="diis">    0.26    0.01</time>
   <time name="orth">    0.02    0.00</time>
   <time name="total">    0.61    0.02</time>
   <energy>
    <i name="e_fr_energy">    -32.85124395 </i>
    <i name="e_wo_entrp">    -32.76571292 </i>
    <i name="e_0_energy">    -32.80847844 </i>
   </energy>
  </scstep>
  <scstep>
   <time name="diag">    0.12    0.00</time>
   <time name="diis">    0.26    0.01</time>
   <time name="orth">    0.02    0.00</time>
   <time name="total">    0.60    0.01</time>
   <energy>
    <i name="e_fr_energy">    -32.85115910 </i>
    <i name="e_wo_entrp">    -32.76233416 </i>
    <i name="e_0_energy">    -32.80674663 </i>
   </energy>
  </scstep>
  <scstep>
   <time name="diag">    0.12    0.00</time>
   <time name="diis">    0.22    0.01</time>
   <time name="orth">    0.02    0.00</time>
   <time name="total">    0.51    0.01</time>
   <energy>
    <i name="alphaZ">     13.17272099 </i>
    <i name="ewald">   -896.52471113 </i>
    <i name="hartreedc">    -69.53474635 </i>
    <i name="XCdc">    -71.77364016 </i>
    <i name="pawpsdc">   5569.38408854 </i>
    <i name="pawaedc">  -5429.62512294 </i>
    <i name="eentropy">     -0.08823673 </i>
    <i name="bandstr">     27.70660489 </i>
    <i name="atom">    824.43180455 </i>
    <i name="e_fr_energy">    -32.85123834 </i>
    <i name="e_wo_entrp">    -32.76300161 </i>
    <i name="e_0_energy">    -32.80711998 </i>
   </energy>
  </scstep>
  <structure>
   <crystal>
    <varray name="basis" >
     <v>       5.46872807       0.00000000       0.00000000 </v>
     <v>       0.00000000       5.46872807       0.00000000 </v>
     <v>       0.00000000       0.00000000       5.46872807 </v>
    </varray>
    <i name="volume">    163.55317727 </i>
    <varray name="rec_basis" >
     <v>       0.18285788       0.00000000       0.00000000 </v>
     <v>       0.00000000       0.18285788       0.00000000 </v>
     <v>       0.00000000       0.00000000       0.18285788 </v>
    </varray>
   </crystal>
   <varray name="positions" >
    <v>       0.27712977       0.75402309       0.25519676 </v>
    <v>       0.02291379       0.97853752       0.48760632 </v>
    <v>       0.24683794       0.23164709       0.76611069 </v>
    <v>       0.00344626       0.48395073       0.98546190 </v>
    <v>       0.79969158       0.73124498       0.72963440 </v>
    <v>       0.47022290       0.03300608       0.01458084 </v>
    <v>       0.73133047       0.26006624       0.21004043 </v>
    <v>       0.44842729       0.52752426       0.55136866 </v>
   </varray>
  </structure>
  <varray name="forces" >
   <v>       0.15861049      -1.66808936      -1.76805818 </v>
   <v>      -0.24777747       0.59481555       0.84901880 </v>
   <v>      -0.69423612      -0.45861492      -2.02430870 </v>
   <v>       0.51760353       1.39268205       0.20427654 </v>
   <v>       0.05922171      -0.58812345      -0.49945446 </v>
   <v>      -0.39057725      -1.72617335       0.44398542 </v>
   <v>       1.35777523       0.59812708       0.62361677 </v>
   <v>      -0.73596811       1.82660780       2.12104551 </v>
  </varray>
  <varray name="stress" >
   <v>      57.74929359      -8.60858596       5.25731543 </v>
   <v>      -8.60858586      62.71788869     -63.56911056 </v>
   <v>       5.25731534     -63.56911064     101.75503011 </v>
  </varray>
  <energy>
   <i name="e_fr_energy">    -32.85123834 </i>
   <i name="e_wo_entrp">    -32.76300161 </i>
   <i name="e_0_energy">    -32.80711998 </i>
   <i name="kinetic">      1.71598814 </i>
   <i name="lattice kinetic">      0.00000000 </i>
   <i name="nosepot">     -0.23781190 </i>
   <i name="nosekinetic">      0.06966617 </i>
   <i name="total">    -31.30339593 </i>
  </energy>
  <time name="totalsc">    4.45    0.11</time>
 </calculation>
 <calculation>
  <scstep>
   <time name="diag">    0.13    0.00</time>
   <time name="diis">    0.24    0.01</time>
   <time name="orth">    0.02    0.00</time>
   <time name="total">    0.57    0.01</time>
   <energy>
    <i name="alphaZ">     13.17272099 </i>
    <i name="ewald">   -895.21141060 </i>
    <i name="hartreedc">    -70.71429911 </i>
    <i name="XCdc">    -71.78175444 </i>
    <i name="pawpsdc">   5569.49833890 </i>
    <i name="pawaedc">  -5429.74829693 </i>
    <i name="eentropy">     -0.07260453 </i>
    <i name="bandstr">     27.20702545 </i>
    <i name="atom">    824.43180455 </i>
    <i name="e_fr_energy">    -33.21847572 </i>
    <i name="e_wo_entrp">    -33.14587119 </i>
    <i name="e_0_energy">    -33.18217346 </i>
   </energy>
  </scstep>
  <scstep>
   <time name="diag">    0.13    0.00</time>
   <time name="diis">    0.26    0.01</time>
   <time name="orth">    0.02    0.00</time>
   <time name="total">    0.60    0.01</time>
   <energy>
    <i name="e_fr_energy">    -33.21914574 </i>
    <i name="e_wo_entrp">    -33.14493677 </i>
    <i name="e_0_energy">    -33.18204125 </i>
   </energy>
  </scstep>
  <scstep>
   <time name="diag">    0.13    0.00</time>
   <time name="diis">    0.26    0.01</time>
   <time name="orth">    0.02    0.00</time>
   <time name="total">    0.59    0.01</time>
   <energy>
    <i name="e_fr_energy">    -33.21927861 </i>
    <i name="e_wo_entrp">    -33.14695207 </i>
    <i name="e_0_energy">    -33.18311534 </i>
   </energy>
  </scstep>
  <scstep>
   <time name="diag">    0.13    0.00</time>
   <time name="diis">    0.22    0.01</time>
   <time name="orth">    0.02    0.00</time>
   <time name="total">    0.51    0.01</time>
   <energy>
    <i name="alphaZ">     13.17272099 </i>
    <i name="ewald">   -895.21141060 </i>
    <i name="hartreedc">    -70.58820645 </i>
    <i name="XCdc">    -71.79475155 </i>
    <i name="pawpsdc">   5558.44195414 </i>
    <i name="pawaedc">  -5418.68741872 </i>
    <i name="eentropy">     -0.07360805 </i>
    <i name="bandstr">     27.08957789 </i>
    <i name="atom">    824.43180455 </i>
    <i name="e_fr_energy">    -33.21933780 </i>
    <i name="e_wo_entrp">    -33.14572975 </i>
    <i name="e_0_energy">    -33.18253377 </i>
   </energy>
  </scstep>
  <structure>
   <crystal>
    <varray name="basis" >
     <v>       5.46872807       0.00000000       0.00000000 </v>
     <v>       0.00000000       5.46872807       0.00000000 </v>
     <v>       0.00000000       0.00000000       5.46872807 </v>
    </varray>
    <i name="volume">    163.55317727 </i>
    <varray name="rec_basis" >
     <v>       0.18285788       0.00000000       0.00000000 </v>
     <v>       0.00000000       0.18285788       0.00000000 </v>
     <v>       0.00000000       0.00000000       0.18285788 </v>
    </varray>
   </crystal>
   <varray name="positions" >
    <v>       0.28141248       0.75128490       0.25109045 </v>
    <v>       0.02459492       0.97847859       0.48768249 </v>
    <v>       0.24503740       0.22759425       0.76372381 </v>
    <v>       0.00460151       0.48485351       0.98509392 </v>
    <v>       0.80661842       0.72814631       0.72638262 </v>
    <v>       0.46535482       0.03301169       0.01703075 </v>
    <v>       0.73185215       0.26303740       0.20711580 </v>
    <v>       0.44052831       0.53359335       0.56188015 </v>
   </varray>
  </structure>
  <varray name="forces" >
   <v>      -0.22507387      -1.83444090      -1.43866555 </v>
   <v>       0.03103569       0.14417695       0.54659214 </v>
   <v>      -0.76705200      -0.36320452      -1.73198682 </v>
   <v>       0.97758118       1.41292671      -0.04674903 </v>
   <v>      -0.23407916      -0.47606044      -0.50639237 </v>
   <v>       0.12304831      -1.57812387       0.16366344 </v>
   <v>       1.01951330       0.45611181       0.66230877 </v>
   <v>      -0.91489511       2.19720649       2.34474610 </v>
  </varray>
  <varray name="stress" >
   <v>      46.59172548       4.14010508       4.41912915 </v>
   <v>       4.14010492      68.94306004     -74.87152527 </v>
   <v>       4.41912912     -74.87152549     105.36839537 </v>
  </varray>
  <energy>
   <i name="e_fr_energy">    -33.21933780 </i>
   <i name="e_wo_entrp">    -33.14572975 </i>
   <i name="e_0_energy">    -33.18253377 </i>
   <i name="kinetic">      2.15983650 </i>
   <i name="lattice kinetic">      0.00000000 </i>
   <i name="nosepot">     -0.30937762 </i>
   <i name="nosekinetic">      0.06503091 </i>
   <i name="total">    -31.30384802 </i>
  </energy>
  <time name="totalsc">    3.98    0.10</time>
 </calculation>
 <calculation>
  <scstep>
   <time name="diag">    0.13    0.00</time>
   <time name="diis">    0.24    0.01</time>
   <time name="orth">    0.02    0.00</time>
   <time name="total">    0.57    0.01</time>
   <energy>
    <i name="alphaZ">     13.17272099 </i>
    <i name="ewald">   -893.88425978 </i>
    <i name="hartreedc">    -71.87033917 </i>
    <i name="XCdc">    -71.81617931 </i>
    <i name="pawpsdc">   5533.86711811 </i>
    <i name="pawaedc">  -5394.11335635 </i>
    <i name="eentropy">     -0.04917160 </i>
    <i name="bandstr">     26.59354130 </i>
    <i name="atom">    824.43180455 </i>
    <i name="e_fr_energy">    -33.66812126 </i>
    <i name="e_wo_entrp">    -33.61894966 </i>
    <i name="e_0_energy">    -33.64353546 </i>
   </energy>
  </scstep>
  <scstep>
   <time name="diag">    0.13    0.00</time>
   <time name="diis">    0.28    0.01</time>
   <time name="orth">    0.02    0.00</time>
   <time name="total">    0.61    0.02</time>
   <energy>
    <i name="e_fr_energy">    -33.66885603 </i>
    <i name="e_wo_entrp">    -33.62523670 </i>
    <i name="e_0_energy">    -33.64704636 </i>
   </energy>
  </scstep>
  <scstep>
   <time name="diag">    0.12    0.00</time>
   <time name="diis">    0.28    0.01</time>
   <time name="orth">    0.02    0.00</time>
   <time name="total">    0.61    0.02</time>
   <energy>
    <i name="e_fr_energy">    -33.66899964 </i>
    <i name="e_wo_entrp">    -33.62427630 </i>
    <i name="e_0_energy">    -33.64663797 </i>
   </energy>
  </scstep>
  <scstep>
   <time name="diag">    0.12    0.00</time>
   <time name="diis">    0.20    0.01</time>
   <time name="orth">    0.02    0.00</time>
   <time name="total">    0.48    0.01</time>
   <energy>
    <i name="alphaZ">     13.17272099 </i>
    <i name="ewald">   -893.88425978 </i>
    <i name="hartreedc">    -71.75721599 </i>
    <i name="XCdc">    -71.82472899 </i>
    <i name="pawpsdc">   5530.57911629 </i>
    <i name="pawaedc">  -5390.82128561 </i>
    <i name="eentropy">     -0.04425396 </i>
    <i name="bandstr">     26.47907965 </i>
    <i name="atom">    824.43180455 </i>
    <i name="e_fr_energy">    -33.66902285 </i>
    <i name="e_wo_entrp">    -33.62476889 </i>
    <i name="e_0_energy">    -33.64689587 </i>
   </energy>
  </scstep>
  <structure>
   <crystal>
    <varray name="basis" >
     <v>       5.46872807       0.00000000       0.00000000 </v>
     <v>       0.00000000       5.46872807       0.00000000 </v>
     <v>       0.00000000       0.00000000       5.46872807 </v>
    </varray>
    <i name="volume">    163.55317727 </i>
    <varray name="rec_basis" >
     <v>       0.18285788       0.00000000       0.00000000 </v>
     <v>       0.00000000       0.18285788       0.00000000 </v>
     <v>       0.00000000       0.00000000       0.18285788 </v>
    </varray>
   </crystal>
   <varray name="positions" >
    <v>       0.28565002       0.74744858       0.24608265 </v>
    <v>       0.02632603       0.97850378       0.48807269 </v>
    <v>       0.24276286       0.22325746       0.76030172 </v>
    <v>       0.00633685       0.48658364       0.98469249 </v>
    <v>       0.81354683       0.72471798       0.72277837 </v>
    <v>       0.46046074       0.03211936       0.01962264 </v>
    <v>       0.73296541       0.26633024       0.20451238 </v>
    <v>       0.43195126       0.54103895       0.57393706 </v>
   </varray>
  </structure>
  <varray name="forces" >
   <v>      -0.60686491      -2.08424510      -1.05599621 </v>
   <v>       0.29930443      -0.30501467       0.08620131 </v>
   <v>      -0.74279782      -0.28622474      -1.31007308 </v>
   <v>       1.52042028       1.36648112      -0.17225933 </v>
   <v>      -0.56130221      -0.29882893      -0.58167929 </v>
   <v>       0.70541801      -1.28727753      -0.25979724 </v>
   <v>       0.60343473       0.27951391       0.69530395 </v>
   <v>      -1.23047351       2.58039546       2.57293993 </v>
  </varray>
  <varray name="stress" >
   <v>      35.70507439      21.94856208       2.32347825 </v>
   <v>      21.94856223      77.80969212     -82.12646018 </v>
   <v>       2.32347852     -82.12646025     103.27037498 </v>
  </varray>
  <energy>
   <i name="e_fr_energy">    -33.66902285 </i>
   <i name="e_wo_entrp">    -33.62476889 </i>
   <i name="e_0_energy">    -33.64689587 </i>
   <i name="kinetic">      2.69417155 </i>
   <i name="lattice kinetic">      0.00000000 </i>
   <i name="nosepot">     -0.37330657 </i>
   <i name="nosekinetic">      0.04349971 </i>
   <i name="total">    -31.30465816 </i>
  </energy>
  <time name="totalsc">    5.32    0.13</time>
 </calculation>
 <calculation>
  <scstep>
   <time name="diag">    0.13    0.00</time>
   <time name="diis">    0.25    0.01</time>
   <time name="orth">    0.02    0.00</time>
   <time name="total">    0.57    0.01</time>
   <energy>
    <i name="alphaZ">     13.17272099 </i>
    <i name="ewald">   -892.41729470 </i>
    <i name="hartreedc">    -73.21815448 </i>
    <i name="XCdc">    -71.86322081 </i>
    <i name="pawpsdc">   5478.21077611 </i>
    <i name="pawaedc">  -5338.44277152 </i>
    <i name="eentropy">     -0.01610333 </i>
    <i name="bandstr">     25.94068476 </i>
    <i name="atom">    824.43180455 </i>
    <i name="e_fr_energy">    -34.20155842 </i>
    <i name="e_wo_entrp">    -34.18545510 </i>
    <i name="e_0_energy">    -34.19350676 </i>
   </energy>
  </scstep>
  <scstep>
   <time name="diag">    0.13    0.00</time>
   <time name="diis">    0.26    0.01</time>
   <time name="orth">    0.02    0.00</time>
   <time name="total">    0.60    0.01</time>
   <energy>
    <i name="e_fr_energy">    -34.19899663 </i>
    <i name="e_wo_entrp">    -34.18965534 </i>
    <i name="e_0_energy">    -34.19432598 </i>
   </energy>
  </scstep>
  <scstep>
   <time name="diag">    0.13    0.00</time>
   <time name="diis">    0.26    0.01</time>
   <time name="orth">    0.02    0.00</time>
   <time name="total">    0.60    0.01</time>
   <energy>
    <i name="e_fr_energy">    -34.19914849 </i>
    <i name="e_wo_entrp">    -34.19109337 </i>
    <i name="e_0_energy">    -34.19512093 </i>
   </energy>
  </scstep>
  <scstep>
[...]
       <r>     8.1774   123.6013  1288.8991 </r>
       <r>     8.2370    90.4418  1294.2633 </r>
       <r>     8.2966    62.2723  1297.9458 </r>
       <r>     8.3562    55.2202  1301.2134 </r>
       <r>     8.4158    60.6510  1304.8069 </r>
       <r>     8.4754    69.7331  1308.9392 </r>
       <r>     8.5349    78.4506  1313.5955 </r>
       <r>     8.5945    82.4761  1318.5084 </r>
       <r>     8.6541    91.2557  1323.9645 </r>
       <r>     8.7137   100.7839  1329.9942 </r>
       <r>     8.7733    94.2871  1335.6060 </r>
       <r>     8.8329    88.8172  1340.8205 </r>
       <r>     8.8925   111.0138  1347.2579 </r>
       <r>     8.9520   152.6864  1356.0713 </r>
       <r>     9.0116   173.6213  1366.0590 </r>
       <r>     9.0712   157.5714  1375.0584 </r>
       <r>     9.1308   158.3298  1384.0311 </r>
       <r>     9.1904   224.7164  1396.8532 </r>
       <r>     9.2500   297.7815  1414.0779 </r>
       <r>     9.3096   262.3521  1429.4239 </r>
       <r>     9.3692   134.9283  1437.3765 </r>
       <r>     9.4287    38.1086  1439.6336 </r>
       <r>     9.4883     5.7056  1439.9726 </r>
       <r>     9.5479     0.4429  1439.9989 </r>
       <r>     9.6075     0.0176  1440.0000 </r>
       <r>     9.6671     0.0004  1440.0000 </r>
       <r>     9.7267     0.0000  1440.0000 </r>
       <r>     9.7863     0.0000  1440.0000 </r>
       <r>     9.8458     0.0000  1440.0000 </r>
       <r>     9.9054     0.0000  1440.0000 </r>
       <r>     9.9650     0.0000  1440.0000 </r>
       <r>    10.0246     0.0000  1440.0000 </r>
       <r>    10.0842     0.0000  1440.0000 </r>
       <r>    10.1438     0.0000  1440.0000 </r>
       <r>    10.2034     0.0000  1440.0000 </r>
       <r>    10.2630     0.0000  1440.0000 </r>
      </set>
     </set>
    </array>
   </total>
  </dos>
  <time name="totalsc">    4.60    0.12</time>
  <eigenvalues>
   <array>
    <dimension dim="1">band</dimension>
    <dimension dim="2">kpoint</dimension>
    <dimension dim="3">spin</dimension>
    <field>eigene</field>
    <field>occ</field>
    <set>
     <set comment="spin 1">
      <set comment="kpoint 1">
       <r>   -6.6051    1.0000 </r>
       <r>   -3.2859    1.0000 </r>
       <r>   -2.6258    1.0000 </r>
       <r>   -2.4642    1.0000 </r>
       <r>   -1.6015    1.0000 </r>
       <r>   -0.9706    1.0000 </r>
       <r>   -0.1538    1.0000 </r>
       <r>    1.3210    1.0000 </r>
       <r>    2.0352    1.0000 </r>
       <r>    2.5095    1.0000 </r>
       <r>    2.8580    1.0000 </r>
       <r>    3.3331    1.0000 </r>
       <r>    3.8106    1.0000 </r>
       <r>    4.0470    1.0000 </r>
       <r>    4.4107    1.0000 </r>
       <r>    4.7393    1.0000 </r>
       <r>    5.8394    0.0000 </r>
       <r>    6.2440    0.0000 </r>
       <r>    6.4664    0.0000 </r>
       <r>    7.5259    0.0000 </r>
       <r>    8.0633    0.0000 </r>
       <r>    8.3176    0.0000 </r>
       <r>    9.1960    0.0000 </r>
       <r>    9.4558    0.0000 </r>
      </set>
     </set>
    </set>
   </array>
  </eigenvalues>
  <separator name="orbital magnetization" >
   <v name="MAGDIPOLOUT">      0.00000000      0.00000000      0.00000000</v>
  </separator>
  <dos>
   <i name="efermi">      5.21906245 </i>
   <total>
    <array>
     <dimension dim="1">gridpoints</dimension>
     <dimension dim="2">spin</dimension>
     <field>energy</field>
     <field>total</field>
     <field>integrated</field>
     <set>
      <set comment="spin 1">
       <r>    -7.6051     0.0000     0.0000 </r>
       <r>    -7.5449     0.0000     0.0000 </r>
       <r>    -7.4847     0.0000     0.0000 </r>
       <r>    -7.4245     0.0000     0.0000 </r>
       <r>    -7.3643     0.0000     0.0000 </r>
       <r>    -7.3041     0.0000     0.0000 </r>
       <r>    -7.2439     0.0000     0.0000 </r>
       <r>    -7.1837     0.0000     0.0000 </r>
       <r>    -7.1235     0.0000     0.0000 </r>
       <r>    -7.0633     0.0000     0.0000 </r>
       <r>    -7.0031     0.0000     0.0000 </r>
       <r>    -6.9429     0.0000     0.0000 </r>
       <r>    -6.8827     0.0014     0.0001 </r>
       <r>    -6.8225     0.0337     0.0021 </r>
       <r>    -6.7623     0.4009     0.0262 </r>
       <r>    -6.7021     2.3933     0.1703 </r>
       <r>    -6.6419     7.1909     0.6032 </r>
       <r>    -6.5817    10.9066     1.2599 </r>
       <r>    -6.5215     8.3610     1.7632 </r>
       <r>    -6.4613     3.2370     1.9581 </r>
       <r>    -6.4011     0.6312     1.9961 </r>
       <r>    -6.3409     0.0617     1.9998 </r>
       <r>    -6.2807     0.0030     2.0000 </r>
       <r>    -6.2205     0.0001     2.0000 </r>
       <r>    -6.1603     0.0000     2.0000 </r>
       <r>    -6.1001     0.0000     2.0000 </r>
       <r>    -6.0399     0.0000     2.0000 </r>
       <r>    -5.9796     0.0000     2.0000 </r>
       <r>    -5.9194     0.0000     2.0000 </r>
       <r>    -5.8592     0.0000     2.0000 </r>
       <r>    -5.7990     0.0000     2.0000 </r>
       <r>    -5.7388     0.0000     2.0000 </r>
       <r>    -5.6786     0.0000     2.0000 </r>
       <r>    -5.6184     0.0000     2.0000 </r>
       <r>    -5.5582     0.0000     2.0000 </r>
       <r>    -5.4980     0.0000     2.0000 </r>
       <r>    -5.4378     0.0000     2.0000 </r>
       <r>    -5.3776     0.0000     2.0000 </r>
       <r>    -5.3174     0.0000     2.0000 </r>
       <r>    -5.2572     0.0000     2.0000 </r>
       <r>    -5.1970     0.0000     2.0000 </r>
       <r>    -5.1368     0.0000     2.0000 </r>
       <r>    -5.0766     0.0000     2.0000 </r>
       <r>    -5.0164     0.0000     2.0000 </r>
       <r>    -4.9562     0.0000     2.0000 </r>
       <r>    -4.8960     0.0000     2.0000 </r>
       <r>    -4.8358     0.0000     2.0000 </r>
       <r>    -4.7756     0.0000     2.0000 </r>
       <r>    -4.7154     0.0000     2.0000 </r>
       <r>    -4.6552     0.0000     2.0000 </r>
       <r>    -4.5950     0.0000     2.0000 </r>
       <r>    -4.5348     0.0000     2.0000 </r>
       <r>    -4.4746     0.0000     2.0000 </r>
       <r>    -4.4144     0.0000     2.0000 </r>
       <r>    -4.3542     0.0000     2.0000 </r>
       <r>    -4.2940     0.0000     2.0000 </r>
       <r>    -4.2338     0.0000     2.0000 </r>
       <r>    -4.1736     0.0000     2.0000 </r>
       <r>    -4.1134     0.0000     2.0000 </r>
       <r>    -4.0531     0.0000     2.0000 </r>
       <r>    -3.9929     0.0000     2.0000 </r>
       <r>    -3.9327     0.0000     2.0000 </r>
       <r>    -3.8725     0.0000     2.0000 </r>
       <r>    -3.8123     0.0000     2.0000 </r>
       <r>    -3.7521     0.0000     2.0000 </r>
       <r>    -3.6919     0.0000     2.0000 </r>
       <r>    -3.6317     0.0000     2.0000 </r>
       <r>    -3.5715     0.0009     2.0001 </r>
       <r>    -3.5113     0.0229     2.0014 </r>
       <r>    -3.4511     0.2997     2.0195 </r>
       <r>    -3.3909     1.9617     2.1376 </r>
       <r>    -3.3307     6.4589     2.5264 </r>
       <r>    -3.2705    10.7318     3.1725 </r>
       <r>    -3.2103     9.0122     3.7151 </r>
       <r>    -3.1501     3.8230     3.9452 </r>
       <r>    -3.0899     0.8172     3.9944 </r>
       <r>    -3.0297     0.0877     3.9997 </r>
       <r>    -2.9695     0.0047     4.0000 </r>
       <r>    -2.9093     0.0011     4.0001 </r>
       <r>    -2.8491     0.0254     4.0016 </r>
       <r>    -2.7889     0.3236     4.0211 </r>
       <r>    -2.7287     2.0707     4.1457 </r>
       <r>    -2.6685     6.7098     4.5497 </r>
       <r>    -2.6083    11.4160     5.2370 </r>
       <r>    -2.5481    12.0711     5.9637 </r>
       <r>    -2.4879    12.0086     6.6866 </r>
       <r>    -2.4277    11.6748     7.3895 </r>
       <r>    -2.3675     7.2911     7.8284 </r>
       <r>    -2.3073     2.4102     7.9735 </r>
       <r>    -2.2471     0.4041     7.9979 </r>
       <r>    -2.1869     0.0340     7.9999 </r>
       <r>    -2.1267     0.0014     8.0000 </r>
       <r>    -2.0664     0.0000     8.0000 </r>
       <r>    -2.0062     0.0000     8.0000 </r>
       <r>    -1.9460     0.0000     8.0000 </r>
       <r>    -1.8858     0.0009     8.0001 </r>
       <r>    -1.8256     0.0244     8.0015 </r>
       <r>    -1.7654     0.3143     8.0204 </r>
       <r>    -1.7052     2.0270     8.1425 </r>
       <r>    -1.6450     6.5767     8.5384 </r>
       <r>    -1.5848    10.7685     9.1867 </r>
       <r>    -1.5246     8.9116     9.7232 </r>
       <r>    -1.4644     3.7253     9.9475 </r>
       <r>    -1.4042     0.7846     9.9947 </r>
       <r>    -1.3440     0.0829     9.9997 </r>
       <r>    -1.2838     0.0045    10.0000 </r>
       <r>    -1.2236     0.0057    10.0003 </r>
       <r>    -1.1634     0.1004    10.0064 </r>
       <r>    -1.1032     0.9020    10.0607 </r>
       <r>    -1.0430     4.0694    10.3057 </r>
       <r>    -0.9828     9.2525    10.8627 </r>
       <r>    -0.9226    10.6277    11.5025 </r>
       <r>    -0.8624     6.1694    11.8740 </r>
       <r>    -0.8022     1.8071    11.9827 </r>
       <r>    -0.7420     0.2662    11.9988 </r>
       <r>    -0.6818     0.0196    12.0000 </r>
       <r>    -0.6216     0.0007    12.0000 </r>
       <r>    -0.5614     0.0000    12.0000 </r>
       <r>    -0.5012     0.0000    12.0000 </r>
       <r>    -0.4410     0.0008    12.0000 </r>
       <r>    -0.3808     0.0212    12.0013 </r>
       <r>    -0.3206     0.2824    12.0183 </r>
       <r>    -0.2604     1.8827    12.1317 </r>
       <r>    -0.2002     6.3129    12.5117 </r>
       <r>    -0.1400    10.6818    13.1548 </r>
       <r>    -0.0797     9.1347    13.7047 </r>
       <r>    -0.0195     3.9462    13.9423 </r>
       <r>     0.0407     0.8591    13.9940 </r>
       <r>     0.1009     0.0939    13.9997 </r>
       <r>     0.1611     0.0051    14.0000 </r>
       <r>     0.2213     0.0001    14.0000 </r>
       <r>     0.2815     0.0000    14.0000 </r>
       <r>     0.3417     0.0000    14.0000 </r>
       <r>     0.4019     0.0000    14.0000 </r>
       <r>     0.4621     0.0000    14.0000 </r>
       <r>     0.5223     0.0000    14.0000 </r>
       <r>     0.5825     0.0000    14.0000 </r>
       <r>     0.6427     0.0000    14.0000 </r>
       <r>     0.7029     0.0000    14.0000 </r>
       <r>     0.7631     0.0000    14.0000 </r>
       <r>     0.8233     0.0000    14.0000 </r>
       <r>     0.8835     0.0000    14.0000 </r>
       <r>     0.9437     0.0000    14.0000 </r>
       <r>     1.0039     0.0001    14.0000 </r>
       <r>     1.0641     0.0045    14.0003 </r>
       <r>     1.1243     0.0851    14.0054 </r>
       <r>     1.1845     0.7996    14.0535 </r>
       <r>     1.2447     3.7705    14.2805 </r>
       <r>     1.3049     8.9586    14.8199 </r>
       <r>     1.3651    10.7519    15.4672 </r>
       <r>     1.4253     6.5220    15.8598 </r>
       <r>     1.4855     1.9965    15.9800 </r>
       <r>     1.5457     0.3074    15.9985 </r>
       <r>     1.6059     0.0237    15.9999 </r>
       <r>     1.6661     0.0009    16.0000 </r>
       <r>     1.7263     0.0002    16.0000 </r>
       <r>     1.7865     0.0071    16.0004 </r>
       <r>     1.8468     0.1205    16.0077 </r>
       <r>     1.9070     1.0300    16.0697 </r>
       <r>     1.9672     4.4205    16.3358 </r>
       <r>     2.0274     9.5636    16.9116 </r>
       <r>     2.0876    10.4535    17.5409 </r>
       <r>     2.1478     5.7745    17.8886 </r>
       <r>     2.2080     1.6095    17.9855 </r>
       <r>     2.2682     0.2358    17.9997 </r>
       <r>     2.3284     0.1784    18.0104 </r>
       <r>     2.3886     1.2772    18.0873 </r>
       <r>     2.4488     5.0386    18.3906 </r>
       <r>     2.5090    10.0281    18.9944 </r>
       <r>     2.5692    10.0859    19.6016 </r>
       <r>     2.6294     5.1448    19.9113 </r>
       <r>     2.6896     1.5794    20.0064 </r>
       <r>     2.7498     1.9749    20.1253 </r>
       <r>     2.8100     6.1777    20.4972 </r>
       <r>     2.8702    10.6270    21.1370 </r>
       <r>     2.9304     9.2547    21.6941 </r>
       <r>     2.9906     4.0718    21.9392 </r>
       <r>     3.0508     0.9039    21.9937 </r>
       <r>     3.1110     0.1274    22.0013 </r>
       <r>     3.1712     0.3439    22.0220 </r>
       <r>     3.2314     2.1322    22.1504 </r>
       <r>     3.2916     6.7604    22.5574 </r>
       <r>     3.3518    10.8193    23.2088 </r>
       <r>     3.4120     8.7514    23.7356 </r>
       <r>     3.4722     3.5755    23.9509 </r>
       <r>     3.5324     0.7373    23.9953 </r>
       <r>     3.5926     0.1087    24.0018 </r>
       <r>     3.6528     0.3957    24.0256 </r>
       <r>     3.7130     2.3566    24.1675 </r>
       <r>     3.7732     7.1341    24.5970 </r>
       <r>     3.8335    10.9375    25.2555 </r>
       <r>     3.8937     8.8734    25.7897 </r>
       <r>     3.9539     5.9002    26.1449 </r>
       <r>     4.0141     8.1780    26.6372 </r>
       <r>     4.0743    11.0073    27.2999 </r>
       <r>     4.1345     8.0402    27.7839 </r>
       <r>     4.1947     3.0154    27.9655 </r>
       <r>     4.2549     0.9770    28.0243 </r>
       <r>     4.3151     2.5246    28.1763 </r>
       <r>     4.3753     7.3167    28.6168 </r>
       <r>     4.4355    10.9236    29.2744 </r>
       <r>     4.4957     8.2545    29.7713 </r>
       <r>     4.5559     3.2914    29.9695 </r>
       <r>     4.6161     1.7992    30.0778 </r>
       <r>     4.6763     4.9017    30.3729 </r>
       <r>     4.7365     9.8954    30.9687 </r>
       <r>     4.7967    10.2091    31.5833 </r>
       <r>     4.8569     5.3240    31.9038 </r>
       <r>     4.9171     1.4003    31.9881 </r>
       <r>     4.9773     0.1851    31.9992 </r>
       <r>     5.0375     0.0122    32.0000 </r>
       <r>     5.0977     0.0004    32.0000 </r>
       <r>     5.1579     0.0000    32.0000 </r>
       <r>     5.2181     0.0000    32.0000 </r>
       <r>     5.2783     0.0000    32.0000 </r>
       <r>     5.3385     0.0000    32.0000 </r>
       <r>     5.3987     0.0000    32.0000 </r>
       <r>     5.4589     0.0000    32.0000 </r>
       <r>     5.5191     0.0001    32.0000 </r>
       <r>     5.5793     0.0038    32.0002 </r>
       <r>     5.6395     0.0742    32.0047 </r>
       <r>     5.6997     0.7232    32.0482 </r>
       <r>     5.7599     3.5355    32.2611 </r>
       <r>     5.8202     8.7074    32.7853 </r>
       <r>     5.8804    10.8316    33.4374 </r>
       <r>     5.9406     6.8104    33.8474 </r>
       <r>     6.0008     2.1704    33.9781 </r>
       <r>     6.0610     0.4956    34.0079 </r>
       <r>     6.1212     1.2364    34.0823 </r>
       <r>     6.1814     4.8773    34.3760 </r>
       <r>     6.2416     9.9388    34.9743 </r>
       <r>     6.3018    10.4949    35.6061 </r>
       <r>     6.3620     7.2796    36.0444 </r>
       <r>     6.4222     7.8929    36.5196 </r>
       <r>     6.4824    10.9296    37.1776 </r>
       <r>     6.5426     8.9834    37.7184 </r>
       <r>     6.6028     3.7833    37.9462 </r>
       <r>     6.6630     0.8038    37.9946 </r>
       <r>     6.7232     0.0857    37.9997 </r>
       <r>     6.7834     0.0046    38.0000 </r>
       <r>     6.8436     0.0001    38.0000 </r>
       <r>     6.9038     0.0000    38.0000 </r>
       <r>     6.9640     0.0000    38.0000 </r>
       <r>     7.0242     0.0000    38.0000 </r>
       <r>     7.0844     0.0000    38.0000 </r>
       <r>     7.1446     0.0000    38.0000 </r>
       <r>     7.2048     0.0001    38.0000 </r>
       <r>     7.2650     0.0036    38.0002 </r>
       <r>     7.3252     0.0718    38.0045 </r>
       <r>     7.3854     0.7057    38.0470 </r>
       <r>     7.4456     3.4799    38.2565 </r>
       <r>     7.5058     8.6453    38.7770 </r>
       <r>     7.5660    10.8479    39.4301 </r>
       <r>     7.6262     6.8798    39.8443 </r>
       <r>     7.6864     2.2023    39.9769 </r>
       <r>     7.7467     0.3548    39.9982 </r>
       <r>     7.8069     0.0333    40.0002 </r>
       <r>     7.8671     0.0881    40.0055 </r>
       <r>     7.9273     0.8122    40.0544 </r>
       <r>     7.9875     3.8082    40.2837 </r>
       <r>     8.0477     8.9994    40.8255 </r>
       <r>     8.1079    10.7855    41.4748 </r>
       <r>     8.1681     6.9995    41.8962 </r>
       <r>     8.2283     4.8311    42.1870 </r>
       <r>     8.2885     8.1771    42.6793 </r>
       <r>     8.3487    10.9741    43.3400 </r>
       <r>     8.4089     7.6978    43.8034 </r>
       <r>     8.4691     2.7314    43.9679 </r>
       <r>     8.5293     0.4880    43.9972 </r>
       <r>     8.5895     0.0437    43.9999 </r>
       <r>     8.6497     0.0020    44.0000 </r>
       <r>     8.7099     0.0000    44.0000 </r>
       <r>     8.7701     0.0000    44.0000 </r>
       <r>     8.8303     0.0000    44.0000 </r>
       <r>     8.8905     0.0003    44.0000 </r>
       <r>     8.9507     0.0084    44.0005 </r>
       <r>     9.0109     0.1382    44.0088 </r>
       <r>     9.0711     1.1369    44.0773 </r>
       <r>     9.1313     4.6970    44.3601 </r>
       <r>     9.1915     9.7870    44.9493 </r>
       <r>     9.2517    10.3594    45.5729 </r>
       <r>     9.3119     6.1083    45.9407 </r>
       <r>     9.3721     4.7064    46.2240 </r>
       <r>     9.4323     8.5592    46.7393 </r>
       <r>     9.4925    10.9199    47.3967 </r>
       <r>     9.5527     7.1914    47.8297 </r>
       <r>     9.6129     2.3933    47.9738 </r>
       <r>     9.6731     0.4009    47.9979 </r>
       <r>     9.7334     0.0337    47.9999 </r>
       <r>     9.7936     0.0014    48.0000 </r>
       <r>     9.8538     0.0000    48.0000 </r>
       <r>     9.9140     0.0000    48.0000 </r>
       <r>     9.9742     0.0000    48.0000 </r>
       <r>    10.0344     0.0000    48.0000 </r>
       <r>    10.0946     0.0000    48.0000 </r>
       <r>    10.1548     0.0000    48.0000 </r>
       <r>    10.2150     0.0000    48.0000 </r>
       <r>    10.2752     0.0000    48.0000 </r>
       <r>    10.3354     0.0000    48.0000 </r>
       <r>    10.3956     0.0000    48.0000 </r>
       <r>    10.4558     0.0000    48.0000 </r>
      </set>
     </set>
    </array>
   </total>
  </dos>
 </calculation>
 <structure name="finalpos" >
  <crystal>
   <varray name="basis" >
    <v>       5.46872807       0.00000000       0.00000000 </v>
    <v>       0.00000000       5.46872807       0.00000000 </v>
    <v>       0.00000000       0.00000000       5.46872807 </v>
   </varray>
   <i name="volume">    163.55317727 </i>
   <varray name="rec_basis" >
    <v>       0.18285788       0.00000000       0.00000000 </v>
    <v>       0.00000000       0.18285788       0.00000000 </v>
    <v>       0.00000000       0.00000000       0.18285788 </v>
   </varray>
  </crystal>
  <varray name="positions" >
   <v>       0.37531873       0.59512981       0.23339859 </v>
   <v>       0.09749672       0.95908216       0.38912678 </v>
   <v>       0.22409335       0.21169087       0.74307401 </v>
   <v>       0.02737179       0.44904456       0.00953538 </v>
   <v>       0.81542581       0.65529289       0.61771144 </v>
   <v>       0.44892797       0.04469940       0.05734651 </v>
   <v>       0.68319558       0.36517930       0.20340537 </v>
   <v>       0.32817007       0.71988102       0.74640192 </v>
  </varray>
  <varray name="velocities" >
   <v>       0.00271545      -0.00390144       0.00127980 </v>
   <v>       0.00476580       0.00099544      -0.00160096 </v>
   <v>       0.00118527      -0.00002752      -0.00175930 </v>
   <v>      -0.00039277      -0.00232367       0.00214155 </v>
   <v>      -0.00202557      -0.00166123      -0.00281376 </v>
   <v>      -0.00328929       0.00243764       0.00475648 </v>
   <v>      -0.00510198       0.00428356       0.00167176 </v>
   <v>       0.00214310       0.00019722      -0.00367557 </v>
  </varray>
 </structure>
</modeling>
