cd Si                                   
           1
     5.468728    0.000000    0.000000
     0.000000    5.468728    0.000000
     0.000000    0.000000    5.468728
   Si
     8
Direct configuration=     1
   0.25000000  0.75000000  0.25000000
   0.00000000  0.00000000  0.50000000
   0.25000000  0.25000000  0.75000000
   0.00000000  0.50000000  0.00000000
   0.75000000  0.75000000  0.75000000
   0.50000000  0.00000000  0.00000000
   0.75000000  0.25000000  0.25000000
   0.50000000  0.50000000  0.50000000
Direct configuration=     2
   0.25340098  0.75181125  0.25315096
   0.00360258 -0.00464201  0.49827102
   0.25064058  0.24857764  0.75391089
  -0.00023153  0.49671787 -0.00300793
   0.75656500  0.74719098  0.74706373
   0.49590064  0.00675335  0.00235283
   0.74685189  0.25018224  0.24287016
   0.49326985  0.50340869  0.50538833
Direct configuration=     3
   0.25665557  0.75353085  0.25607978
   0.00715938 -0.00901693  0.49641683
   0.25103535  0.24712197  0.75768210
  -0.00026659  0.49353391 -0.00586015
   0.76285204  0.74458504  0.74430819
   0.49208820  0.01309732  0.00449699
   0.74364659  0.25051904  0.23616539
   0.48682946  0.50662880  0.51071087
Direct configuration=     4
   0.25970787  0.75505413  0.25850324
   0.01060753 -0.01288269  0.49439915
   0.25102651  0.24555840  0.76112509
   0.00000901  0.49054670 -0.00840319
   0.76878873  0.74227134  0.74181656
   0.48867675  0.01872740  0.00632856
   0.74041614  0.25114246  0.23018678
   0.48076746  0.50958226  0.51604381
Direct configuration=     5
   0.26270002  0.75618924  0.26013350
   0.01381051 -0.01606880  0.49235830
   0.25066745  0.24372323  0.76401966
   0.00053243  0.48794290 -0.01052693
   0.77455296  0.74020219  0.73955029
   0.48551249  0.02347929  0.00785285
   0.73734848  0.25212823  0.22501984
   0.47487566  0.51240371  0.52159248
Direct configuration=     6
   0.26581845  0.75675774  0.26072494
   0.01665307 -0.01848954  0.49048583
   0.25006114  0.24145805  0.76615132
   0.00118750  0.48589933 -0.01216380
   0.78037931  0.73827339  0.73738659
   0.48232707  0.02726761  0.00920278
   0.73468530  0.25352717  0.22061090
   0.46888814  0.51530625  0.52760144
Direct configuration=     7
   0.26922999  0.75664860  0.26010108
   0.01907750 -0.02013060  0.48897843
   0.24925584  0.23866611  0.76731285
   0.00187976  0.48451111 -0.01331405
   0.78647320  0.73627144  0.73511540
   0.47882132  0.03011043  0.01065045
   0.73269665  0.25532334  0.21676485
   0.46256574  0.51859955  0.53439098
Direct configuration=     8
   0.27301940  0.75577506  0.25823511
   0.02112573 -0.02106976  0.48801039
   0.24821231  0.23536453  0.76732041
   0.00260203  0.48384750 -0.01405961
   0.79293409  0.73395476  0.73254535
   0.47477368  0.03203637  0.01243172
   0.73157747  0.25749106  0.21325938
   0.45575529  0.52260049  0.54225725
Direct configuration=     9
   0.27712977  0.75402309  0.25519676
   0.02291379 -0.02146248  0.48760632
   0.24683794  0.23164709  0.76611069
   0.00344626  0.48395073 -0.01453810
   0.79969158  0.73124498  0.72963440
   0.47022290  0.03300608  0.01458084
   0.73133047  0.26006624  0.21004043
   0.44842729  0.52752426  0.55136866
Direct configuration=    10
   0.28141248  0.75128490  0.25109045
   0.02459492 -0.02152141  0.48768249
   0.24503740  0.22759425  0.76372381
   0.00460151  0.48485351 -0.01490608
   0.80661842  0.72814631  0.72638262
   0.46535482  0.03301169  0.01703075
   0.73185215  0.26303740  0.20711580
   0.44052831  0.53359335  0.56188015
Direct configuration=    11
   0.28565002  0.74744858  0.24608265
   0.02632603 -0.02149622  0.48807269
   0.24276286  0.22325746  0.76030172
   0.00633685  0.48658364 -0.01530751
   0.81354683  0.72471798  0.72277837
   0.46046074  0.03211936  0.01962264
   0.73296541  0.26633024  0.20451238
   0.43195126  0.54103895  0.57393706
Direct configuration=    12
   0.28961050  0.74236548  0.24039459
   0.02825637 -0.02164196  0.48852007
   0.24002948  0.21869059  0.75607998
   0.00896740  0.48912278 -0.01581174
   0.82026727  0.72106694  0.71878668
   0.45589120  0.03048161  0.02210981
   0.73444134  0.26983763  0.20226532
   0.42253645  0.55007694  0.58765529
Direct configuration=    13
   0.29309640  0.73591389  0.23432429
   0.03049190 -0.02214560  0.48862487
   0.23693680  0.21402356  0.75139901
   0.01274828  0.49229628 -0.01638350
   0.82653524  0.71730372  0.71436274
   0.45197270  0.02835362  0.02425196
   0.73602644  0.27346336  0.20040628
   0.41219225  0.56079118  0.60301437
Direct configuration=    14
   0.29600820  0.72808528  0.22823966
   0.03304685 -0.02308750  0.48787377
   0.23366808  0.20951357  0.74670108
   0.01774068  0.49574936 -0.01690968
   0.83209307  0.71349557  0.70948530
   0.44894668  0.02608172  0.02589952
   0.73749699  0.27715391  0.19893335
   0.40099944  0.57300808  0.61977700
Direct configuration=    15
   0.29840182  0.71898190  0.22251822
   0.03586850 -0.02449685  0.48579804
   0.23048326  0.20549627  0.74245796
   0.02378574  0.49906110 -0.01728795
   0.83669732  0.70966203  0.70415823
   0.44697261  0.02400611  0.02698113
   0.73866432  0.28090692  0.19782334
   0.38912643  0.58638252  0.63755103
Direct configuration=    16
   0.30049592  0.70887495  0.21749015
   0.03886185 -0.02633822  0.48207805
   0.22764429  0.20231661  0.73909026
   0.03050368  0.50180154 -0.01743910
   0.84015656  0.70579361  0.69840773
   0.44609241  0.02238190  0.02754965
   0.73938838  0.28477459  0.19702593
   0.37685690  0.60039503  0.65579733
Direct configuration=    17
   0.30262475  0.69819141  0.21341261
   0.04194170 -0.02851257  0.47662305
   0.22532608  0.20023516  0.73689487
   0.03732492  0.50357566 -0.01733173
   0.84236821  0.70185892  0.69228524
   0.44622733  0.02133565  0.02776169
   0.73957282  0.28883871  0.19648008
   0.36461420  0.61447707  0.67387418
Direct configuration=    18
   0.30516149  0.68744169  0.21046772
   0.04506536 -0.03087974  0.46957836
   0.22357721  0.19935436  0.73597464
   0.04358272  0.50405766 -0.01697445
   0.84333112  0.69782591  0.68585978
   0.44720308  0.02088771  0.02782013
   0.73914517  0.29317463  0.19610905
   0.35293385  0.62813778  0.69116476
Direct configuration=    19
   0.30842596  0.67708615  0.20877412
   0.04823832 -0.03327196  0.46129271
   0.22232745  0.19958466  0.73625682
   0.04860737  0.50303805 -0.01637874
   0.84314679  0.69368895  0.67923343
   0.44878268  0.02098949  0.02792078
   0.73805712  0.29782376  0.19583972
   0.34241432  0.64106090  0.70706115
Direct configuration=    20
   0.31261289  0.66743273  0.20837409
   0.05149146 -0.03553391  0.45223471
   0.22144905  0.20069129  0.73750732
   0.05184873  0.50044527 -0.01553064
   0.84200445  0.68948297  0.67252908
   0.45071368  0.02157139  0.02821359
   0.73630966  0.30280228  0.19561480
   0.33357007  0.65310797  0.72105705
Direct configuration=    21
   0.31774850  0.65858483  0.20920258
   0.05487718 -0.03756162  0.44289528
   0.22082646  0.20237398  0.73939535
   0.05302073  0.49637065 -0.01437012
   0.84013076  0.68527937  0.66586981
   0.45274576  0.02256217  0.02879417
   0.73392099  0.30810400  0.19541272
   0.32672961  0.66428663  0.73280020
Direct configuration=    22
   0.32370535  0.65047809  0.21107396
   0.05843434 -0.03929970  0.43372394
   0.22038076  0.20432733  0.74156977
   0.05216995  0.49107968 -0.01282970
   0.83775948  0.68116065  0.65936586
   0.45466678  0.02390398  0.02972279
   0.73090948  0.31370158  0.19525134
   0.32197387  0.67464840  0.74212204
Direct configuration=    23
   0.33025482  0.64294738  0.21370558
   0.06218050 -0.04072784  0.42509124
   0.22008046  0.20628487  0.74370592
   0.04964706  0.48499366 -0.01087814
   0.83509848  0.67719931  0.65310514
   0.45630603  0.02555373  0.03103703
   0.72728717  0.31955221  0.19517954
   0.31914547  0.68419669  0.74905369
Direct configuration=    24
   0.33713474  0.63581601  0.21677998
   0.06610964 -0.04184117  0.41726632
   0.21992363  0.20804383  0.74554391
   0.04600173  0.47860985 -0.00854789
   0.83231769  0.67345544  0.64716453
   0.45753255  0.02747463  0.03276231
   0.72305320  0.32560105  0.19526873
   0.31792682  0.69284036  0.75376210
Direct configuration=    25
   0.34409481  0.62895079  0.21999385
   0.07020723 -0.04263872  0.41041437
   0.21993182  0.20947530  0.74689616
   0.04183480  0.47239560 -0.00593046
   0.82954486  0.66997007  0.64159719
   0.45824845  0.02963280  0.03492290
   0.71820922  0.33177452  0.19559947
   0.31792882  0.70043964  0.75650653
Direct configuration=    26
   0.35091571  0.62227840  0.22310347
   0.07445820 -0.04311726  0.40459986
   0.22012670  0.21052172  0.74765094
   0.03769733  0.46671385 -0.00314577
   0.82686006  0.66676462  0.63644980
   0.45837969  0.03199175  0.03753895
   0.71277495  0.33799021  0.19623503
   0.31878735  0.70685672  0.75756772
Direct configuration=    27
   0.35739982  0.61580952  0.22594285
   0.07885059 -0.04327411  0.39980600
   0.22052191  0.21119665  0.74777230
   0.03401337  0.46176737 -0.00032397
   0.82430269  0.66385096  0.63175715
   0.45787094  0.03450109  0.04062651
   0.70683461  0.34415333  0.19720424
   0.32020607  0.71199518  0.75721493
Direct configuration=    28
   0.36334457  0.60964453  0.22841054
   0.08337403 -0.04311718  0.39596347
   0.22111885  0.21156173  0.74728939
   0.03105919  0.45760701  0.00242444
   0.82188479  0.66123902  0.62753951
   0.45668807  0.03709665  0.04417949
   0.70055936  0.35014592  0.19849687
   0.32197114  0.71582233  0.75569629
Direct configuration=    29
   0.36850603  0.60396601  0.23046727
   0.08800988 -0.04265646  0.39297274
   0.22191639  0.21170424  0.74627630
   0.02897079  0.45417852  0.00501544
   0.81960338  0.65893739  0.62379699
   0.45480732  0.03970727  0.04817972
   0.69424537  0.35580058  0.20004671
   0.32394084  0.71836246  0.75324482
Direct configuration=    30
   0.37260328  0.59903124  0.23211880
   0.09273092 -0.04191328  0.39072774
   0.22290807  0.21171839  0.74483331
   0.02776456  0.45136823  0.00739383
   0.81745138  0.65695411  0.62052520
   0.45221726  0.04226175  0.05259003
   0.68829756  0.36089574  0.20173361
   0.32602697  0.71968380  0.75007748
